USPEX

256 atoms
1 atom types

-50.0 50.00 xlo xhi
-50.0 50.00 ylo yhi
-50.0 50.00 zlo zhi
0.00 0.00 0.00 xy xz yz

Atoms

1 1 4.6167 3.0119 3.26153
2 1 4.58276 0.804621 6.53904
3 1 7.058 6.906 4.832
4 1 1.50704 4.47742 0.00227008
5 1 3.47017 4.32003 2.36351
6 1 7.411 3.5 0.788
7 1 4.17304 6.45493 6.99699
8 1 -0.75655 1.15724 7.19948
9 1 5.814 2.92095 3.43054
10 1 1.63209 6.85589 4.21305
11 1 6.845 3.994 7.267
12 1 4.754 0.822 0.321
13 1 6.08162 3.68409 4.52675
14 1 1.8874 5.27413 2.94636
15 1 5.70742 5.08526 4.1111
16 1 5.60377 2.66422 0.302945
17 1 5.40634 2.65349 5.892
18 1 2.63253 2.17206 5.09561
19 1 1.99093 8.0277 2.90064
20 1 1.43 1.236 4.663
21 1 5.98998 6.79551 6.94695
22 1 2.37555 4.9947 4.94129
23 1 1.727 5.296 1.27
24 1 4.46055 3.01362 1.47324
25 1 4.11472 -0.00489054 9.02335
26 1 5.85297 6.66387 5.61957
27 1 6.45887 2.20085 5.58287
28 1 3.2471 5.13865 0.175973
29 1 0.807348 1.11683 7.14131
30 1 1.27946 3.06052 6.98634
31 1 3.65 7.233 0.787
32 1 8.29493 2.40618 3.69956
33 1 13.054 4.44329 3.30873
34 1 12.3205 2.63637 6.40192
35 1 13.2666 6.83699 4.60775
36 1 8.77351 3.93681 1.02449
37 1 10.903 4.321 3.875
38 1 16.1113 1.23076 1.28658
39 1 12.9765 8.83004 8.10871
40 1 8.32567 0.592459 5.6696
41 1 10.7532 2.88836 4.62178
42 1 10.014 6.34876 4.76058
43 1 14.31 3.994 7.92
44 1 12.9542 0.626987 -0.292941
45 1 12.6306 2.17235 4.47714
46 1 8.4882 5.56729 3.72587
47 1 14.205 5.53968 8.1143
48 1 13.0778 2.09739 1.21714
49 1 13.7334 4.44186 6.18108
50 1 9.97714 2.30114 5.55829
51 1 10.156 5.203 3.066
52 1 7.52164 3.63891 5.5549
53 1 11.9037 6.55449 6.0277
54 1 14.157 3.97199 3.85431
55 1 7.13936 3.59594 2.70314
56 1 12.854 2.525 3.067
57 1 9.93161 3.23331 6.82162
58 1 13.9204 5.79584 5.95233
59 1 14.6932 0.841126 2.25591
60 1 10.8614 6.52937 2.51737
61 1 8.63017 1.2279 7.15116
62 1 9.66622 2.38006 7.80775
63 1 11.8737 7.12212 2.13793
64 1 14.664 0.588 3.876
65 1 5.49453 11.1578 4.64528
66 1 2.21181 7.5055 7.80362
67 1 8.1449 13.7468 6.82691
68 1 0.585485 13.4495 3.86289
69 1 4.71243 10.1518 2.38709
70 1 7.54663 10.7927 3.49176
71 1 3.66581 12.9936 7.52892
72 1 2.19264 8.71823 4.40593
73 1 3.296 10.639 4.831
74 1 0.389229 14.3038 2.42555
75 1 7.11747 8.42728 10.0365
76 1 4.95615 7.72223 1.96793
77 1 5.05469 11.1188 6.71361
78 1 1.74427 12.9237 3.7826
79 1 6.041 12.342 7.109
80 1 5.80665 8.38276 1.40519
81 1 5.59899 13.0324 5.10591
82 1 4.90739 8.77977 5.77255
83 1 2.633 12.669 3.063
84 1 0.829266 8.21433 3.96855
85 1 4.978 13.397 7.108
86 1 6.77813 9.48553 2.56692
87 1 1.21294 13.7677 1.331
88 1 5.17536 9.71864 4.29689
89 1 4.65189 10.8234 7.89685
90 1 6.88169 13.9082 5.70041
91 1 7.53966 7.73322 3.49318
92 1 2.717 13.816 2.105
93 1 0.567949 10.0252 4.96435
94 1 2.63066 12.1301 7.7818
95 1 3.7084 11.2132 2.00588
96 1 6.424 8.28229 5.51485
97 1 13.1583 9.83858 4.50343
98 1 12.1652 8.62826 4.74889
99 1 14.0133 13.2366 4.78751
100 1 8.36057 12.2635 2.36264
101 1 9.65868 10.7649 3.4079
102 1 14.82 10.966 2.092
103 1 11.8918 13.3525 9.0786
104 1 8.104 7.961 5.016
105 1 10.762 10.639 5.484
106 1 8.147 14.464 4.525
107 1 14.8967 11.7434 9.0281
108 1 12.4491 8.40771 1.20979
109 1 12.1401 11.5765 6.07745
110 1 9.036 13.724 3.716
111 1 13.6476 12.8637 9.07543
112 1 11.9027 9.68657 1.99877
113 1 12.0143 11.8278 7.22576
114 1 9.886 9.757 6.151
115 1 8.84546 10.004 3.61427
116 1 9.08858 8.3779 6.25497
117 1 12.506 13.8569 7.72709
118 1 15.9993 10.0919 2.78629
119 1 9.69574 12.7651 1.17964
120 1 11.6784 10.5895 3.47809
121 1 12.4378 8.6966 6.75944
122 1 13.478 12.9121 7.26908
123 1 15.115 9.22105 4.92918
124 1 10.5084 13.7199 2.23128
125 1 9.51667 10.5976 6.68095
126 1 7.8792 9.62672 7.91298
127 1 9.00557 14.0458 2.61149
128 1 16.2487 9.15678 3.6826
129 1 3.849 2.613 10.659
130 1 2.64321 1.53538 13.6162
131 1 6.06356 5.62594 11.9248
132 1 2.36417 3.79985 5.79448
133 1 2.786 3.667 10.659
134 1 6.66224 2.08422 8.31689
135 1 3.495 6.019 14.703
136 1 0.34038 0.234144 10.5278
137 1 1.2075 1.402 10.7841
138 1 -0.77918 6.16487 10.6612
139 1 6.29012 3.27169 14.7734
140 1 3.49378 0.957058 8.44929
141 1 2.12303 3.8618 11.9091
142 1 -2.68337 6.66386 11.3388
143 1 5.57955 1.60135 15.2293
144 1 5.44021 0.534038 7.95725
145 1 4.484 4.316 12.752
146 1 1.826 1.638 12.284
147 1 4.21048 6.53379 10.0606
148 1 -1.10444 -0.0951441 11.9065
149 1 4.26483 5.23633 13.8619
150 1 6.21916 3.70542 9.44536
151 1 1.077 4.642 8.707
152 1 4.31347 2.24915 9.44608
153 1 1.742 0.491 13.243
154 1 7.68761 4.96883 15.7714
155 1 6.47759 0.86705 9.88232
156 1 2.90069 4.80109 8.98762
157 1 0.68 1.545 13.243
158 1 -0.908584 1.23327 12.6157
159 1 2.94387 5.26696 10.1723
160 1 6.61248 -0.302153 10.6361
161 1 9.96945 3.65858 12.0676
162 1 10.1648 0.678774 15.0167
163 1 15.6399 6.25051 11.7101
164 1 7.66253 3.08069 8.89023
165 1 8.59962 4.3641 12.6823
166 1 14.0734 2.39554 6.92873
167 1 7.54973 6.84975 13.3727
168 1 7.511 -0.158 11.803
169 1 9.12168 0.0402356 11.0702
170 1 7.3449 6.87745 9.96175
171 1 13.66 3.341 15.357
172 1 11.9222 1.64476 7.67286
173 1 11.215 3.575 12.455
174 1 9.6003 6.45339 10.5436
175 1 11.6641 3.92556 15.383
176 1 11.3845 2.09001 8.95432
177 1 11.95 4.316 13.405
178 1 9.25566 1.52419 12.8906
179 1 8.65852 4.60785 10.1841
180 1 9.0928 0.01538 12.9511
181 1 10.2016 3.6192 13.7752
182 1 14.2445 2.06946 9.10538
183 1 9.93964 4.5951 8.77367
184 1 12.204 1.872 10.504
185 1 9.42578 2.64397 14.0213
186 1 12.1577 6.50679 13.4669
187 1 12.6294 3.50577 10.9352
188 1 8.78442 6.1631 8.36833
189 1 9.20171 1.45934 14.713
190 1 6.97936 3.60609 16.2832
191 1 10.465 6.58 8.877
192 1 14.9916 0.90927 9.57674
193 1 2.30469 8.42858 9.98066
194 1 2.17455 6.07073 15.8171
195 1 6.35 13.719 12.92
196 1 0.285 11.367 8.407
197 1 2.2977 10.1971 10.8009
198 1 6.704 10.313 8.876
199 1 3.438 13.485 15.354
200 1 -0.012 7.308 11.801
201 1 2.82004 10.2809 11.8384
202 1 0.031 13.811 11.309
203 1 5.84534 12.4145 16.2537
204 1 3.21936 7.43737 8.84053
205 1 3.02896 10.0944 13.3482
206 1 1.16325 13.0411 10.1026
207 1 6.15083 10.6422 14.2314
208 1 4.781 8.375 9.359
209 1 4.427 11.782 13.403
210 1 1.769 9.103 12.935
211 1 2.00892 11.8114 9.91311
212 1 2.09761 7.87068 11.7585
213 1 4.327 12.744 14.545
214 1 6.11688 9.02873 9.39972
215 1 1.01318 12.339 8.30866
216 1 4.681 9.338 10.501
217 1 1.685 7.956 13.894
218 1 6.52605 11.8547 12.9682
219 1 5.70835 7.98455 10.3938
220 1 1.16802 14.1201 8.87727
221 1 1.41858 7.83125 15.4689
222 1 -0.714197 9.01823 14.6108
223 1 2.943 14.046 8.875
224 1 6.491 7.4 11.311
225 1 11.2215 7.89572 12.6382
226 1 10.4918 7.38866 14.8318
227 1 13.816 13.719 13.573
228 1 7.55053 10.3237 10.2458
229 1 9.0061 12.1683 13.3356
230 1 14.291 10.2388 9.90062
231 1 11.4177 12.8282 15.9522
232 1 9.0905 6.75348 12.4196
233 1 10.2078 9.87471 13.3676
234 1 7.497 13.811 11.962
235 1 13.6555 10.5618 15.3377
236 1 11.512 7.635 9.062
237 1 11.0538 11.0605 12.3469
238 1 8.96613 12.3535 12.0315
239 1 12.5915 11.7802 15.0672
240 1 10.7527 7.49563 11.4327
241 1 12.1782 11.53 12.3054
242 1 8.97504 10.3999 12.7496
243 1 7.81135 12.5887 10.7616
244 1 8.188 8.049 13.404
245 1 10.0927 13.6723 14.8293
246 1 13.5943 9.03294 9.60852
247 1 6.40562 11.9343 10.1333
248 1 11.9465 8.44666 10.3589
249 1 8.30556 6.03063 14.4621
250 1 13.2301 12.3414 13.3014
251 1 13.5432 7.9688 11.1694
252 1 8.81723 13.1284 9.35052
253 1 8.088 9.011 14.547
254 1 7.14645 11.4629 13.9047
255 1 10.408 14.046 9.528
256 1 14.542 7.38958 11.9752
