USPEX

4000 atoms
1 atom types

-100.0 50.00 xlo xhi
-100.0 50.00 ylo yhi
-100.0 50.00 zlo zhi
0.00 0.00 0.00 xy xz yz

Atoms

1 1 4.47943290344 2.28099228091 4.63806997205
2 1 5.2640670848 -0.875150087874 -1.45717440076
3 1 5.29610178615 3.52424584756 4.47627069774
4 1 0.0470723024732 7.08561943762 2.75525250694
5 1 2.80877064485 1.92880874697 -0.543691910815
6 1 4.84891119008 3.84617569669 7.47059188299
7 1 0.340738550211 3.6850735602 0.0591340572248
8 1 3.85499110478 -1.31764012086 7.55839762058
9 1 1.59312822997 4.85722196943 2.36142252875
10 1 8.47579659501 5.80068613895 5.24942509144
11 1 0.063590796402 0.884737623876 2.38379609087
12 1 6.22934021111 3.26016075008 0.216117265125
13 1 5.16677492133 6.95519837189 7.34583469894
14 1 -0.348197207164 5.45395728182 0.666909696199
15 1 5.77420973231 5.00675152308 4.00887424364
16 1 6.10037771509 8.6526060989 3.89456778491
17 1 6.84211532463 4.37411508897 3.21007206144
18 1 2.1797099046 1.49808915904 6.43438786417
19 1 0.340589560865 5.46550970815 2.22302710137
20 1 3.113259842 1.63822058022 4.76784163716
21 1 6.21792136896 6.7079450379 6.56595043983
22 1 3.25051331033 1.39429379276 0.837480928988
23 1 3.66998239336 6.3119173957 2.88776954551
24 1 7.23030353415 2.33311967671 0.188088894006
25 1 -1.24398425781 0.584461710752 3.09496426415
26 1 4.4998340829 4.7918390463 8.98191596067
27 1 1.23204386717 2.41704903621 7.06228690957
28 1 5.77805619777 1.01741018924 2.92650296215
29 1 2.74308148117 5.22629373821 2.88629385011
30 1 6.66107743675 -0.210421011137 2.29207996411
31 1 1.23551149988 3.71627610474 6.79692616417
32 1 2.93248570347 6.83439233655 -0.0914004354841
33 1 9.63095891179 3.4045961428 3.12213503045
34 1 11.2473466288 -0.102508225177 -0.899157441481
35 1 12.3930141256 6.77966091235 4.40841824775
36 1 6.4523552492 7.35010958342 3.06636986444
37 1 11.4267698315 1.95790549805 4.87677309048
38 1 13.1601392294 4.09767469559 6.69239634435
39 1 7.92306254698 4.43042576276 -0.828270198496
40 1 10.7394715919 -1.47739423646 6.40115326572
41 1 9.94033727222 4.68195577229 3.40762819724
42 1 14.8067931798 7.27830522597 4.22766391637
43 1 7.94130010611 -0.65594292717 1.77689347927
44 1 14.6032683675 3.25545184151 -0.0812666651417
45 1 14.1585153038 7.62453580803 6.09565478579
46 1 10.0445453894 5.32926943324 0.653922874589
47 1 14.0323826267 4.00939227411 4.11329412288
48 1 13.6150144881 6.80167393191 5.11543713285
49 1 12.5847382885 2.39711384465 0.851728043643
50 1 10.1670916246 0.702838475592 7.18218005357
51 1 9.26049673307 7.11193432879 3.01365115864
52 1 9.73314636355 2.31795893722 3.92201720983
53 1 13.3683193562 6.96018979268 7.89383199234
54 1 13.2123014408 0.325022178468 2.7493685378
55 1 10.3234493869 6.00945734852 2.36957951472
56 1 13.8217708724 2.08104271401 -0.519093141025
57 1 9.92232203803 1.49317536009 6.0656772162
58 1 13.7064726507 5.25219459315 5.43859573388
59 1 7.33725501738 1.05112242745 7.13404190994
60 1 14.2133138411 0.183705922057 1.65837117664
61 1 9.37420831734 4.40890513712 -0.141885796197
62 1 13.8526120071 0.584535188392 0.451278978674
63 1 8.1337543466 3.05081412224 6.91790801571
64 1 11.1077014127 6.35000368507 0.191362486964
65 1 17.3900693799 3.41245597666 2.52351933728
66 1 18.8346117969 0.339063102938 -0.255123728316
67 1 19.0148184464 4.9259492226 4.19750881252
68 1 15.2938913372 6.81368482447 1.33171765245
69 1 17.9312384291 2.22673149835 3.29478422541
70 1 20.8010710894 3.85824296347 7.35640633374
71 1 15.0624615623 4.22743162362 -0.197605455073
72 1 19.1494996072 -1.27226716035 7.9692486838
73 1 18.1625709222 5.34992872362 5.15100920701
74 1 20.9546442395 7.77137786175 4.83084894515
75 1 16.5466693617 -0.516120160983 6.85031195387
76 1 21.8465290168 3.47364317772 -0.358413641151
77 1 19.4553989149 6.43308236402 7.49944600209
78 1 14.6326707949 4.89264405996 1.02487211893
79 1 20.326297635 5.27475278955 4.04424072562
80 1 21.5122521573 5.01326294572 5.23693126658
81 1 20.8749500987 2.45085544004 2.51627422267
82 1 16.0734115779 1.08013364816 6.80778488223
83 1 18.0727775368 7.11153465918 2.26663337228
84 1 17.6516234966 1.75181197953 7.61609019562
85 1 20.5249727862 5.51792799478 7.18468532846
86 1 18.9436575901 1.70198678476 0.102531555159
87 1 17.9244727113 4.70033997269 1.62947622545
88 1 20.1043214979 2.22176552653 1.29584980666
89 1 15.3813252944 0.681300557022 4.70303693128
90 1 19.6377997213 7.30458021963 4.65004975484
91 1 15.9565512063 1.74720866708 4.90356848598
92 1 22.4999911875 0.934677682942 2.46696053711
93 1 17.905048479 6.08278033833 1.39246554873
94 1 21.0847459198 0.114761952086 2.89602695143
95 1 16.6811941052 4.43777569861 7.16725028859
96 1 17.7104286861 6.62792082436 -0.502485613824
97 1 26.9951352402 3.75125801177 5.99493305997
98 1 25.9263979687 -1.54310815849 0.438379303119
99 1 25.804580975 3.3500742243 5.0699719338
100 1 22.0579159611 7.00018355897 2.92926982422
101 1 26.5680279025 2.82792914467 2.65783902165
102 1 27.4523606408 2.72377086396 6.41680145884
103 1 23.1239479199 4.00444841031 -0.486129899928
104 1 25.7508662429 0.516359663566 6.13953814681
105 1 25.8084040976 3.9727254786 2.73772766683
106 1 28.7456519267 6.93340715358 3.27534548896
107 1 23.5851882942 -0.895145509553 3.60881869249
108 1 28.8350999666 4.49099254889 1.38187521663
109 1 25.705795039 7.19321413106 6.10880231582
110 1 23.1452955037 4.71335952234 1.09000437735
111 1 28.0442721401 4.7421849804 5.02950133581
112 1 27.9812356656 6.22472924997 6.26188209291
113 1 28.392352948 2.33775001538 2.01962356974
114 1 25.0065979451 1.63497994035 7.27978255993
115 1 24.0707805399 5.75595539564 1.82292099922
116 1 25.0306651044 2.41623427121 4.58078139854
117 1 29.5381192314 5.94095250946 6.78747004171
118 1 27.047425762 -0.282950170508 0.30467267287
119 1 24.6912990211 4.97715659555 2.89415824639
120 1 29.0530107542 3.29791519033 1.3662928534
121 1 23.6452939083 -0.187598992004 5.03916293096
122 1 27.2660249613 7.24756642532 6.91298783304
123 1 23.3291426603 2.9316043128 4.26455999058
124 1 28.6141511361 1.52675246992 3.45983347024
125 1 25.0174671743 6.60866055777 0.939904390517
126 1 30.055728329 -1.24634969167 2.29377000425
127 1 25.7181823006 1.72425764186 8.50150657153
128 1 25.1387420218 7.37537403552 -0.166071981771
129 1 33.0444647257 4.17283606698 6.8903620472
130 1 32.6938129461 -0.665632143841 -0.561967640902
131 1 34.2253279125 5.61712890402 4.93147181653
132 1 31.5704799041 7.11964240055 4.73005290126
133 1 34.8646230971 1.85149176239 3.33444005609
134 1 37.6836350676 3.83317411759 7.48848204622
135 1 31.8785038921 3.73201203335 -0.339936270102
136 1 33.453024399 -0.460245347348 5.23991698478
137 1 32.8344627456 4.18581508692 2.14219746921
138 1 37.3586410043 7.07653329722 4.09049105696
139 1 30.0954820296 -1.05292188814 5.06406083341
140 1 40.2210265592 3.82718963125 -0.736890588218
141 1 34.5908358355 6.7580345826 6.78509564197
142 1 29.570432693 4.85943547664 0.190333445314
143 1 35.2777006447 4.50443789335 5.3446550122
144 1 35.9509462067 7.08285470543 5.07026247795
145 1 33.4722208216 2.3374559913 2.47701966294
146 1 33.5940012722 1.1866742552 6.67249755437
147 1 30.8590548644 4.8237154483 -0.789015501473
148 1 32.5717059944 1.89084424785 6.31101768327
149 1 36.5037624853 5.17494603459 7.50669648888
150 1 36.7459941953 0.370752858032 1.78179072003
151 1 31.6358542824 4.32827858346 1.72712417808
152 1 36.795317133 2.06416679967 0.0471279225731
153 1 30.6846871804 1.00300173089 5.27475358104
154 1 35.9712769529 6.12928100028 6.57178013681
155 1 31.2959786263 2.29993458262 5.98501471594
156 1 36.2223544202 1.27476882432 2.78931921914
157 1 32.2297894954 7.23772532236 1.74533047716
158 1 38.1015770669 -0.289353581183 4.39883790942
159 1 31.265903234 2.79851683752 8.26120417946
160 1 31.028446329 7.51732011109 -0.288667103021
161 1 2.80828916976 11.4641794658 4.93548324689
162 1 3.98042275488 10.2186898622 -1.85447944968
163 1 6.07613233825 10.9331018494 4.51479698823
164 1 -0.462748497392 14.5646528824 4.99071788228
165 1 4.04731998078 8.96254894791 3.50481933278
166 1 6.23439385889 12.4787609175 7.65755683253
167 1 0.666824262012 11.5530875331 0.0833979838581
168 1 3.24372465118 9.77815285452 8.47058528825
169 1 3.19771303503 12.059969159 3.73431066034
170 1 6.0212019023 13.8369467142 3.19850984255
171 1 -0.730996146483 7.5043929113 3.51663871523
172 1 5.85616174796 11.0980851865 -0.58112858172
173 1 4.00934373819 15.8294161095 6.53501809608
174 1 -0.963048765171 12.1292847067 0.843444402504
175 1 4.13408111645 12.2100577905 5.5609846392
176 1 5.88511344228 14.0240905247 6.85199581869
177 1 5.86247841166 11.1434901166 1.0382958834
178 1 4.01748731407 8.89860640235 7.28823904901
179 1 1.03830387087 13.7055445539 1.94933813483
180 1 1.54350574319 10.5826624911 4.62035782667
181 1 7.49090503681 11.569954692 4.38563896937
182 1 3.11909468209 7.19312741422 -2.02711284879
183 1 2.30128110285 12.1187090927 2.15760926169
184 1 7.31353735554 10.854367152 1.71528689968
185 1 1.94461746391 8.05596423584 4.74984405881
186 1 4.71117093153 12.9387677134 5.80072096661
187 1 0.072006629056 11.1279477329 5.72451239523
188 1 5.16532755538 9.68027992616 3.95246316383
189 1 5.62562376457 13.8470853215 -0.476124186367
190 1 8.20208366134 7.21597970269 2.42034939766
191 1 -0.769962512634 10.5742944936 6.73591917332
192 1 2.59809057877 15.6793000659 -0.87138882193
193 1 11.2968640928 10.4806420529 4.91228600577
194 1 11.4245486091 7.45918769882 0.882985667688
195 1 12.350939941 12.8445209948 4.06933747562
196 1 7.12411786402 12.7846186893 4.92216083263
197 1 11.2836499692 10.6644480429 1.83702621357
198 1 13.6299549231 11.8998263893 7.03142865279
199 1 8.19055526437 11.9461238833 -0.836036368632
200 1 9.19378680195 8.45435438222 7.17334084467
201 1 12.2238691088 13.5930471356 2.84467531982
202 1 14.9727959906 15.090050958 3.82294838942
203 1 7.77444457875 8.21710264603 5.1102370658
204 1 14.7578985619 10.9368761745 -0.487788032521
205 1 11.5728426966 12.9947460298 6.53322544003
206 1 8.51138808626 11.5932551528 0.956456607065
207 1 13.9435820733 11.8645903073 4.38569526335
208 1 14.8052691697 12.9579913575 4.73967400977
209 1 12.4468380489 9.47513608824 2.19853065758
210 1 10.7430258617 7.37385645739 5.04900172553
211 1 9.50505744837 12.3579391284 1.83720235653
212 1 9.38799904729 10.3082312098 5.51226601757
213 1 12.5651275452 12.7753034239 7.32598742872
214 1 11.1522539771 9.02489883516 0.980658822628
215 1 10.4540118408 13.2874852042 1.89137947761
216 1 14.9755336187 9.64966886171 0.192673271037
217 1 9.6982929174 7.8948273619 4.23925840892
218 1 11.2513604328 12.6493869254 5.23062654484
219 1 8.93538337025 9.96441672322 6.82326562421
220 1 12.4919393914 7.73209457825 1.67128913008
221 1 10.5669949477 14.8365492912 1.41396005305
222 1 14.0624179143 7.16891106345 2.241167469
223 1 8.79387988265 11.2468538177 7.76978673274
224 1 12.2329001902 13.810914843 -1.11181391049
225 1 18.2335477544 10.5953179174 5.2133485112
226 1 18.3759417872 8.16776658778 -0.223328887407
227 1 17.7832333269 13.2549451054 4.46363012289
228 1 16.0559738495 12.8557626183 4.04013638929
229 1 19.6484246482 10.0742303619 2.55066863666
230 1 21.0945566493 12.4054533778 6.17255768704
231 1 15.9592592408 12.0104156924 -0.220441281673
232 1 19.016138623 7.11186705108 6.26972791725
233 1 19.2169052292 12.3703741834 1.41542388694
234 1 22.8535815994 14.0145219895 6.47458189719
235 1 16.2783708546 7.52506404521 4.31961729826
236 1 21.1263124284 10.7154135935 0.156970340605
237 1 20.5065154667 14.7013997011 7.34449871706
238 1 16.3447011637 12.4662414153 1.37377785596
239 1 20.6200779342 10.9327112519 5.22993891378
240 1 19.1265965458 13.4770715751 5.03267056522
241 1 21.0391549337 9.82190607544 2.50579625616
242 1 17.3258969414 7.67655457005 6.183885513
243 1 17.0753396846 14.0716446566 1.04980265911
244 1 16.9548332724 8.08215468167 4.97900362871
245 1 22.176767069 12.703338559 6.60196967617
246 1 18.2262124419 8.44671344875 0.949679254887
247 1 16.0802144634 11.7905411525 2.35267706576
248 1 21.947803915 10.120343716 1.35972590618
249 1 16.6790534655 9.51383904487 4.79412266072
250 1 19.1855005521 13.6492947275 6.72103308208
251 1 14.9476873029 9.81412006147 7.12044667785
252 1 18.9804736676 9.97124167107 1.39644818274
253 1 18.5003559916 14.2392665092 0.692496921318
254 1 22.0041354536 7.94115973668 3.58482513473
255 1 16.6153326639 11.3656816876 7.88933054902
256 1 18.7385016253 14.3983200471 -0.859391629328
257 1 25.0787291903 10.7741914516 5.10160436282
258 1 26.3944606612 8.21843141697 -0.560077128765
259 1 27.842848633 11.7872864661 4.56997666895
260 1 23.6897909754 14.3728100112 2.0980583991
261 1 27.4917172572 11.1094869663 3.47387935312
262 1 28.9139287274 12.204437358 7.12602217014
263 1 22.3785126383 11.990851582 -1.03741482584
264 1 25.0729237548 8.25766009996 6.79794294895
265 1 24.5939036003 11.5596709843 3.53158667491
266 1 28.7480157025 14.0159395973 4.5671486308
267 1 24.7153207837 8.3889317256 3.3629694402
268 1 29.1531546054 11.4018966154 0.743065573109
269 1 25.9850809832 13.6176355177 7.20349790075
270 1 23.7124387849 12.7709789973 -0.167371095276
271 1 27.8422069876 12.9031531215 4.98338912782
272 1 28.7479607379 15.0322481233 5.2356183638
273 1 27.1939111317 10.0642719314 1.86176931822
274 1 25.9389647771 9.38897613322 6.76693063605
275 1 24.618904164 14.2308954426 0.793773914835
276 1 25.2904538596 9.26470540788 4.37129120523
277 1 30.0499565149 13.1954920508 7.44724406186
278 1 25.6233312048 7.79628322221 2.30240922996
279 1 23.9246264609 10.9464530286 2.48887818216
280 1 28.6225465357 10.4944739904 0.996740545917
281 1 23.3946478742 7.8663318028 6.67480348751
282 1 26.2088466223 13.1998699727 6.01121706492
283 1 24.4182966251 11.8806453069 5.83368612937
284 1 29.0989654485 8.9428821424 0.208509464663
285 1 25.7675272543 14.6344048288 0.419812736287
286 1 29.0467178804 8.38810418477 3.69411819159
287 1 22.8927892977 8.96506750198 7.06370669672
288 1 26.0375615944 13.8487491821 -0.955077882772
289 1 33.690996078 10.4984652252 5.71742093004
290 1 36.4416730098 7.51673342484 0.352137764543
291 1 34.0760693542 12.618124046 3.75077963561
292 1 30.3016197876 13.6571003934 4.04584006291
293 1 33.1057487869 10.4457648249 1.87716129523
294 1 37.9026563256 11.3184488798 7.57519942821
295 1 30.1958325076 11.9886390331 0.119347374827
296 1 33.6372779064 8.32693966216 5.3138983228
297 1 32.9231081378 11.2652309771 3.24117524361
298 1 40.1442323203 14.3167097528 3.06596000042
299 1 30.4252444148 9.00671985031 3.94008991002
300 1 37.2662891321 11.9885596619 0.507602762105
301 1 34.923136544 14.3226569534 7.67977681411
302 1 30.8286310409 13.2714328623 1.42993944148
303 1 34.877220477 11.3833129479 6.41979503814
304 1 36.764661459 15.2349688219 5.59194435145
305 1 36.1237759112 9.99293340978 1.10872019665
306 1 33.1166130307 9.38376613734 6.25527192312
307 1 31.0374640285 14.9008861242 1.87357665421
308 1 30.660738922 10.4781820405 3.55231468932
309 1 36.2735871158 11.884301621 5.05745386053
310 1 35.7839357933 7.93217388374 1.32613946728
311 1 31.2918693303 11.7722433683 4.62661750423
312 1 35.9862443946 11.3697914569 0.821080860307
313 1 30.7106221334 8.69097424755 5.45104834421
314 1 33.9619727794 13.7908138495 4.53157210842
315 1 31.6982864713 9.38668393913 6.31818624986
316 1 35.9827364883 8.78684628122 3.00454330048
317 1 30.4789479638 15.6198877988 -0.178049824969
318 1 39.6000418742 9.66588045067 0.494557527556
319 1 31.3121807784 9.49596082112 8.2037322759
320 1 34.0321319769 14.9018573165 -0.327094483921
321 1 5.38114217955 17.1415165098 4.45187417348
322 1 3.19877736012 16.0289257473 -0.0951231077923
323 1 5.09877285584 19.9262746316 4.38917526621
324 1 -2.30623525006 22.8173441287 2.70015550373
325 1 4.56668209967 17.8927324185 3.19901725917
326 1 7.88682160009 19.4833288023 5.19449798919
327 1 0.426717084275 17.518294896 0.342681199706
328 1 3.5378298034 16.708156917 5.8263427035
329 1 0.60911607051 19.6269928245 3.2394415243
330 1 6.84888580898 21.9171371605 3.69856282238
331 1 -0.423913792998 16.107049676 3.45272801894
332 1 7.42432641549 18.1979950198 -0.172552081221
333 1 2.87799018612 19.6003715571 4.99836396462
334 1 0.867707184597 19.8753809197 1.00310424109
335 1 5.90197184083 19.1209582237 6.09724894659
336 1 5.89955949218 20.7336043187 4.78509520347
337 1 6.19892757107 19.2760563671 3.56743761466
338 1 2.10430572277 16.8142272146 6.11013378743
339 1 2.69913594996 20.451523854 2.39808664179
340 1 1.1466666129 17.5041602483 4.51701152116
341 1 5.78016511524 19.4624661835 7.31732744756
342 1 4.71015558055 14.874239735 0.232938547979
343 1 1.28946307981 20.1689725258 1.83292190785
344 1 6.02993002765 17.6539656184 -0.233189124579
345 1 0.512384336205 16.5637483337 3.2864591704
346 1 5.51590256552 21.8826068891 6.0560649469
347 1 0.965342198259 16.556689469 7.22336173753
348 1 5.87915814378 16.2706537142 1.08843503135
349 1 2.85225470594 22.3077534244 2.21918439759
350 1 6.40831391472 15.8974969702 3.86627795286
351 1 0.507140374747 19.0121028333 7.60098529371
352 1 3.76035649227 21.9125406441 -1.32078859546
353 1 10.7178960913 17.2943675083 4.11486639961
354 1 12.3923181314 14.586992416 -0.340984372162
355 1 12.1617538028 19.3569518901 2.18254227598
356 1 8.12725139733 20.5757747203 2.20820208451
357 1 12.869137179 18.4109060467 4.65808661908
358 1 14.4593216886 19.0685859494 6.96740901853
359 1 7.84854007184 19.8299781811 -0.333545920008
360 1 10.6064271631 15.54923755 7.32574817598
361 1 9.69496033877 18.7966869045 5.70367267207
362 1 14.6482436809 20.073662843 3.63785349114
363 1 8.81689474855 15.5810470076 3.78672308632
364 1 14.7600224601 17.8632278647 -1.35417524202
365 1 11.5084977609 21.0600226203 6.91439586296
366 1 9.84867402819 18.9232759357 0.530576784621
367 1 12.2996150608 19.8948861029 5.29570650122
368 1 13.1499403451 21.6646860811 4.87017785072
369 1 12.6202012879 18.1576361462 2.88358094922
370 1 9.23540882596 15.1524633088 5.42136210038
371 1 8.61706431593 21.4485996965 1.02227445535
372 1 10.0518765798 17.5712054705 5.657717501
373 1 14.4219590015 20.40284844 6.4015549452
374 1 11.4186792738 15.2152370465 0.392994368232
375 1 10.7450478759 19.2554509662 2.11389853469
376 1 14.2377877969 16.8393936171 -0.314610134309
377 1 7.54950608931 16.0662532408 3.12796564396
378 1 12.7228315744 20.9322685667 5.88206796443
379 1 9.38838622205 16.2053782687 6.37891234227
380 1 13.9165536602 17.112870591 2.42555763914
381 1 8.85947291382 23.1902149886 1.02463711896
382 1 14.0389919281 15.5440570157 2.83261495548
383 1 8.355789403 16.8019573589 6.9750399904
384 1 11.2213193795 21.887154816 -0.275221521208
385 1 18.1960357684 18.708137754 4.99507903121
386 1 18.1833195945 15.5060933032 -1.67668193674
387 1 19.2587890102 19.5579436104 4.14282494714
388 1 15.6618566594 22.0789685668 2.63452337391
389 1 20.0121409056 18.4295425785 2.12523179727
390 1 21.3856896988 20.531965636 7.85210546507
391 1 16.272063948 20.9885510598 0.373085598437
392 1 17.7799525087 16.3719037266 7.38837283339
393 1 18.4446450695 20.5284569313 3.12238036224
394 1 20.9289410338 22.7539868158 3.62654206591
395 1 14.7452139461 15.7218143855 5.63272131311
396 1 20.8286479682 18.4387433272 -0.415994304437
397 1 19.3898138985 22.1714664705 7.13587012077
398 1 15.5486091967 17.9805898497 1.38489555371
399 1 19.9912300616 20.2205461352 5.63161717083
400 1 21.1133037627 22.6093627884 5.23519739867
401 1 19.3684448429 17.1205910786 2.26463061739
402 1 17.9499187222 15.4682197207 6.19614814184
403 1 15.1445355306 20.8323555894 2.52062034918
404 1 16.9673317939 18.1662009204 4.98596398892
405 1 22.2813570489 19.6495772314 7.10755122737
406 1 19.2582082281 16.4738320734 1.05437848351
407 1 18.19037002 20.3292680474 1.81712031468
408 1 22.5271909987 17.9841106662 -0.120973752146
409 1 15.7583307357 16.0682802248 6.31226554925
410 1 20.1022826729 21.6424824214 6.12693728009
411 1 16.2206213941 17.6369193542 6.31432963234
412 1 22.405107931 16.0220144955 3.28438629188
413 1 17.680980408 21.187364914 1.05959020549
414 1 22.8355704064 15.5312049219 2.16845969015
415 1 15.4660046987 18.3864855705 7.27347897324
416 1 18.5891902914 21.8401162251 -0.194445638244
417 1 25.5451778949 17.3308876369 3.46263534145
418 1 27.9447031377 16.0277343433 0.37011621261
419 1 25.4206403708 19.7852497263 4.80238167285
420 1 22.7473715263 21.6769184487 1.90119715224
421 1 26.7693015468 17.7884218878 2.87798549625
422 1 28.2929760227 18.9968410326 7.30614319705
423 1 23.4627861853 18.4761875466 -0.0556968925913
424 1 25.6512267365 16.4365946834 6.979770939
425 1 24.7420704601 20.6666448421 3.95947518802
426 1 30.1851108126 21.1070178876 5.78371741404
427 1 23.0043199765 16.2151025328 4.79457847194
428 1 29.1833762512 17.8196329061 0.776254315303
429 1 27.4119713226 21.4507903762 7.62328535764
430 1 23.7093075511 20.4039353428 0.245965089127
431 1 26.9293207313 20.3145271059 5.44419211148
432 1 28.8249019936 21.7213163815 4.9558188914
433 1 27.5480298777 16.493702636 2.460279292
434 1 26.0180897096 17.0786679848 5.83975871466
435 1 23.9844965175 21.2274639541 1.69171453624
436 1 25.1612549808 18.0175946508 4.8671775565
437 1 30.3881335519 19.9202795278 5.28329239961
438 1 26.6878847754 15.7755087053 0.720945524584
439 1 25.1163936313 20.6342837656 2.66345660102
440 1 28.9888714787 16.6330765753 0.0105348985748
441 1 23.2795494974 14.915457419 5.43669145492
442 1 27.0987484455 20.0876049507 7.12615333259
443 1 23.987849915 17.724122532 5.10006783164
444 1 29.4545590922 16.3255090763 2.42157626446
445 1 26.2445879319 21.3277038155 1.96739059092
446 1 30.5033055573 15.412584191 3.05761073996
447 1 23.1753725852 18.7792553229 7.46599829522
448 1 25.6549160208 22.7208112603 -0.0681860061398
449 1 33.1221553272 17.7870155992 4.06496413549
450 1 34.8950335845 15.9695743009 -0.00596537863362
451 1 34.8239335149 18.7771563888 4.29048054454
452 1 30.0391325286 20.7602401972 1.46865101947
453 1 35.7034606521 18.2988542518 3.57999709345
454 1 37.4601224287 18.9487139793 6.8109216009
455 1 31.5573423776 19.9103437904 -0.873196461246
456 1 32.7456147503 15.2786149099 6.97409391641
457 1 32.6415674067 19.0997295675 2.90661305149
458 1 37.9573800162 21.8096934659 3.53902892767
459 1 30.2399006589 15.8766581414 5.4434411087
460 1 37.9496045182 19.4990420349 -0.0238851693722
461 1 33.8128077714 22.4179911548 7.22125751841
462 1 28.9147561496 20.1343127512 2.0079901567
463 1 35.1855052592 19.7092207951 5.26327810614
464 1 36.8891716008 22.580087158 4.56046349946
465 1 36.1234210235 17.5505408752 2.31031466865
466 1 33.1391479808 16.2157428015 6.00319332829
467 1 32.2952187379 23.1356190806 2.25614545426
468 1 32.4589724082 17.2213683845 5.31510562779
469 1 35.7419875218 19.361232297 6.5285979107
470 1 35.1899567903 16.6596882744 1.51186730898
471 1 32.7001244529 19.0053300586 1.56532403351
472 1 37.0508748747 18.0102077997 1.02785543098
473 1 31.1164911378 15.934644485 4.05133481478
474 1 34.1564025531 20.749239365 5.29230560307
475 1 30.4979929137 17.21661303 6.16120394144
476 1 36.3430476674 14.8993473325 3.13809018284
477 1 32.0399355138 22.3795192184 1.04329828841
478 1 37.1132716246 15.9130150533 3.88627068613
479 1 29.789885412 19.0836864045 6.64060263607
480 1 33.3095844281 22.4350782118 0.150701531412
481 1 2.68757634236 26.285178381 2.2714178139
482 1 3.57852270648 22.6683693399 -0.394789321996
483 1 4.70026536529 25.9584800081 5.08479559934
484 1 0.140947655326 30.4885215386 5.10240939071
485 1 4.89313589184 25.6406436998 3.30155942998
486 1 5.37374898927 28.2043516982 7.9254327748
487 1 -0.375604915985 26.591180179 0.785662932548
488 1 2.99783719189 25.0120056193 8.75045521565
489 1 2.93310122708 27.5428612693 2.29869683388
490 1 7.54377100604 29.681202484 4.35271344921
491 1 0.599022315914 21.0997881398 5.13624047146
492 1 6.29414444336 26.2646130313 0.31027134438
493 1 6.63440430385 28.6853657769 8.01401044521
494 1 -0.157313098518 28.1436036679 -0.144336190391
495 1 4.44770469722 27.2010745606 5.44157196295
496 1 6.82791206615 28.7790503621 4.16964530543
497 1 6.20873968742 25.5137960647 2.91174926128
498 1 1.24788042766 22.2970536711 5.46881211219
499 1 0.443531792627 29.915645438 2.67771350245
500 1 0.244512818874 24.0859281871 5.57048527113
501 1 5.91746767717 27.9779909308 5.60603719497
502 1 1.84366018507 23.4516648734 0.0518549788324
503 1 1.7904569936 25.0627142612 3.58853996329
504 1 6.40931600427 25.1575919891 1.6998226207
505 1 -0.0674030100664 25.5766526975 2.9776087049
506 1 3.07558284502 28.2679908512 4.82877505556
507 1 0.687641938267 24.6773745444 6.57576736913
508 1 7.95867998195 23.8012184686 2.56204217279
509 1 2.89504772345 27.8964704238 0.996864639027
510 1 6.9735125311 23.2725661803 3.51978212419
511 1 0.076509716943 25.7130581389 7.60250797401
512 1 2.39233747657 29.6310441122 0.162655890175
513 1 12.3676799095 25.1959070807 4.20798664469
514 1 12.0573342911 22.8285850924 0.546921463003
515 1 10.6049027694 28.7344968941 4.26275213166
516 1 8.14847340295 29.3693767488 2.23257739554
517 1 11.2348613198 24.3838065872 4.81146784854
518 1 13.4000719495 26.380223133 7.88302319412
519 1 7.78755520936 26.8786310273 -0.157572386795
520 1 11.0780757644 22.5256852626 7.05118518479
521 1 11.1267648014 26.4974733831 2.80655116108
522 1 13.8251113588 29.3533475613 4.87080108378
523 1 8.05856360034 23.4285876804 5.48305414197
524 1 16.3492200402 25.7437392926 0.0472781197509
525 1 12.3057062275 29.5250729336 6.09347515993
526 1 9.1659276203 27.5732141358 0.821500868711
527 1 12.6864859184 26.3376568121 4.42357890997
528 1 14.8350326201 28.2575536507 5.69906193871
529 1 12.2955459834 25.0207333779 1.18423489279
530 1 9.60183936405 23.4770170542 7.2745162326
531 1 9.26764875951 28.2242104981 1.82410774503
532 1 9.79896544536 25.1100561931 4.9851428299
533 1 12.289268619 27.4237735117 5.5476762786
534 1 12.7097921293 24.0117615081 0.145075380977
535 1 10.8590760546 27.9727873374 2.98053822453
536 1 13.1438058581 26.3051855328 0.99285609514
537 1 8.66505572456 24.6734471312 3.17960426036
538 1 11.9860316478 28.6628979611 4.96050558055
539 1 9.01270680397 24.1360294411 6.35642854214
540 1 12.5752445092 24.5247883076 2.62436160343
541 1 10.9168111722 30.5545732347 1.75581555717
542 1 15.0654169791 23.149965486 3.67644910712
543 1 8.46435345527 25.6024280952 7.04010745881
544 1 10.7240629943 27.7187811887 -1.1564661325
545 1 18.5886180347 25.3623482047 4.0212042392
546 1 19.1791749158 23.2377117577 -0.0752876533775
547 1 19.7597575846 25.9868221398 5.94343989364
548 1 13.5176482162 30.5424048926 1.56707209625
549 1 19.691062859 25.2218344482 3.56720526663
550 1 21.6929008741 25.6179094656 7.02859607703
551 1 15.7420986578 25.9698309231 -1.12823462593
552 1 17.6408888066 22.3268076926 6.55083946924
553 1 17.0519674129 27.3227004401 2.19914452507
554 1 21.9462313911 29.3310994783 2.96620538354
555 1 14.0896454839 22.7976286297 4.71025327389
556 1 21.5869831758 25.1325036263 -0.319893897352
557 1 17.6692535967 30.0893237117 7.05837462589
558 1 15.6291039429 28.7368318214 -0.423778365885
559 1 19.9855215156 28.3094949293 6.04979550232
560 1 21.4073525875 28.118157557 5.54616902045
561 1 20.3176592159 24.5510877989 2.11372479071
562 1 17.0425208755 23.7184618294 6.18923952044
563 1 17.9067562149 28.7025532341 2.00924469
564 1 19.0240819567 25.4796780978 6.96350095618
565 1 22.0539527902 26.8523980017 5.78109582006
566 1 19.2249176556 23.6426667606 1.30326204745
567 1 16.1979827761 26.8898361282 1.4747210844
568 1 21.2389572901 25.1885885941 1.13622751902
569 1 17.1938150685 24.1197927076 4.14175285718
570 1 19.2262803184 27.7265635715 7.11266017289
571 1 15.6391439536 23.9109515111 6.67264913446
572 1 23.1516885673 25.0846968458 1.8793604469
573 1 17.1829034119 29.750413007 0.968062413714
574 1 21.5009988541 21.9746784946 2.5505401667
575 1 16.1985673066 26.9136911288 5.97490043384
576 1 16.887129691 29.1603080719 -0.391692591074
577 1 26.8760037292 25.5900332614 4.71829211051
578 1 26.7045502224 22.2362132058 1.03975522067
579 1 27.7643465804 26.0703789043 5.62588327096
580 1 21.9916119376 29.1026081906 4.80993549777
581 1 26.4545712854 26.1880409949 3.4422588469
582 1 30.0086319786 27.1082002315 6.88414868756
583 1 22.4535541357 26.4877462686 -1.01751556619
584 1 24.6585483894 22.9852783549 6.11012508292
585 1 24.5046294803 25.1930712236 1.61922657918
586 1 30.1326126063 30.4898562487 5.57824520052
587 1 23.5725647024 23.0224318321 5.2178720267
588 1 28.9540877898 25.7119461193 -0.279044118257
589 1 26.8417493887 28.82081583 5.89895985336
590 1 23.2474246676 28.1569229573 1.33152705898
591 1 28.3980980332 29.1717214396 3.86457885837
592 1 28.5096105966 29.323641933 5.15284496728
593 1 28.6176360531 26.5524854685 2.97710991842
594 1 25.4280234594 24.0904957547 6.7550213672
595 1 21.7930712333 28.4859408693 2.15445801781
596 1 24.5377613342 25.4331427615 6.45499328144
597 1 27.4488703265 26.6932071785 6.78519000557
598 1 27.9465596177 22.7869581647 0.922414401067
599 1 25.5663052615 28.7830593906 2.89184016549
600 1 29.1897706026 25.5018263619 1.8183125503
601 1 24.5495567781 25.6045069048 5.34302364316
602 1 27.6006638875 28.3123063321 7.2148622272
603 1 22.161272256 23.2937789178 5.6368039091
604 1 28.7476359343 23.7455760293 2.66247633442
605 1 24.2689566725 27.568460401 2.05784108206
606 1 30.0846174852 22.8182417553 3.20378056186
607 1 24.2829344539 26.5739507286 7.15483179168
608 1 25.3193505689 29.9652594453 -0.63826133833
609 1 33.0685639407 25.9758654168 5.59007117435
610 1 35.5287912974 22.7894862539 -0.897547164646
611 1 34.9831346667 26.9311098481 3.24098072366
612 1 30.5136535965 29.7570045847 2.31848847245
613 1 35.4052202189 24.0225151915 3.04325887351
614 1 38.9575504706 25.7638770994 7.26548073132
615 1 30.5386939606 26.8009419256 -1.43954224583
616 1 32.4926565426 22.4445529057 6.0320686936
617 1 33.4805905629 25.8395773936 1.98221779373
618 1 39.6721291302 30.7514912679 6.08617105652
619 1 31.2741011752 23.5264712222 3.09730680489
620 1 37.9124272332 25.1525513083 -0.494390691286
621 1 33.5320833858 29.0184733139 6.41280811601
622 1 31.6404020352 27.4305877191 0.983514225987