USPEX

14 atoms
1 atom types

0.0 30.00 xlo xhi
0.0 30.00 ylo yhi
0.0 30.00 zlo zhi
0.00 0.00 0.00 xy xz yz

Atoms

1 1 3.62361161435 4.77473208706 6.30255182592
2 1 6.70781604773 8.13121025482 6.81256766487
3 1 3.7068798272 8.10793049644 9.85158015915
4 1 4.77809332813 7.33638316686 8.50384809503
5 1 4.47248965921 5.50543564434 7.89851226979
6 1 6.47030119195 6.54245161731 6.94112808363
7 1 9.19285758221 6.47856449827 4.28138635546
8 1 6.50689549308 5.79905490443 8.73189647561
9 1 8.63629908698 7.61195677446 5.70553011036
10 1 7.47310374475 4.83603137875 10.1394283696
11 1 7.07847989379 9.03158020516 5.18126949483
12 1 8.57156480694 8.97116222865 6.99682879414
13 1 9.74800941278 9.91608695491 8.25105077665
14 1 5.92541967674 10.0625554716 4.1082740125

