USPEX

14 atoms
1 atom types

0.0 30.00 xlo xhi
0.0 30.00 ylo yhi
0.0 30.00 zlo zhi
0.00 0.00 0.00 xy xz yz

Atoms

1 1 4.0447507488 4.83837601992 6.59503053001
2 1 6.88208926732 7.86113250176 6.8761621606
3 1 3.95886889869 8.14661486502 9.50958845883
4 1 4.80498180402 7.1234075228 8.58132918232
5 1 5.07260533433 5.71949108712 7.33145305604
6 1 6.19365964126 7.13838157407 7.80185347248
7 1 9.20352948731 6.59432010233 4.75231321247
8 1 6.44046985101 5.60045550192 8.59401895999
9 1 8.22374733335 7.44627713379 5.44872436606
10 1 6.75170164705 4.832518094 9.94222178765
11 1 6.87705849216 8.9608189238 5.55689413977
12 1 8.30235593583 9.03563544392 6.88175562066
13 1 9.18718966757 9.99054224468 7.74242231546
14 1 6.01053616871 9.90549084423 4.55585544928

