USPEX

14 atoms
1 atom types

0.0 30.00 xlo xhi
0.0 30.00 ylo yhi
0.0 30.00 zlo zhi
0.00 0.00 0.00 xy xz yz

Atoms

1 1 4.40087498015 4.32175072406 6.23567719316
2 1 6.76833281378 8.15199322136 6.94283308248
3 1 3.71162026511 7.82455433966 9.77191542344
4 1 5.27739839433 7.4998632358 8.67728743242
5 1 4.56746221996 5.57460045099 7.67731004381
6 1 6.10568121336 6.78012241339 7.23775116114
7 1 9.37559104988 6.50645039222 4.80348507345
8 1 6.25632696293 6.10901230103 8.95179410507
9 1 8.29112505398 7.92184769369 5.48901773998
10 1 7.16529387673 4.80187854896 10.0189939719
11 1 7.1170163676 9.41204454855 5.50968970664
12 1 8.37740253757 8.67717519794 7.27173058865
13 1 9.69647930469 9.90069797281 8.00333246493
14 1 5.73666539403 10.0504795837 4.31509528153

