USPEX

14 atoms
1 atom types

0.0 30.00 xlo xhi
0.0 30.00 ylo yhi
0.0 30.00 zlo zhi
0.00 0.00 0.00 xy xz yz

Atoms

1 1 3.78093080398 4.75180391276 6.38287252154
2 1 7.30104016508 7.27517288423 7.12300856948
3 1 3.71575501074 8.31321456426 9.82615959654
4 1 4.79279806037 7.33098318617 8.81535151484
5 1 4.68619552125 5.6734881417 7.55230932851
6 1 5.97029040566 6.93684338788 7.47407574335
7 1 9.09322281354 6.65254394747 4.77541622351
8 1 5.93374753513 5.68402298397 9.00486768426
9 1 8.60960015298 7.5725707704 5.75450560292
10 1 7.36721408244 4.82049342086 9.96089863427
11 1 7.08629218516 8.76452719405 5.59961524944
12 1 8.42635925879 8.87077270239 6.97911217077
13 1 9.02478839601 10.1157383913 8.11036914359
14 1 5.94634018672 9.88028569013 4.47037340679

