USPEX

4000 atoms
1 atom types

-100.0 50.00 xlo xhi
-100.0 50.00 ylo yhi
-100.0 50.00 zlo zhi
0.00 0.00 0.00 xy xz yz

Atoms

1 1 1.53574756955 -0.0101141345202 3.45682184332
2 1 3.05112105992 -1.30985152893 -0.0614169724389
3 1 7.39341535907 -0.873964273935 2.30927030789
4 1 -1.80787855152 7.06863887239 2.18329843305
5 1 6.12022413529 0.360138721052 1.80519876647
6 1 4.33208676644 8.4993516309 8.30153126778
7 1 0.854440417358 3.40637050296 0.228738265649
8 1 3.1319910636 -0.565892113835 6.74051661724
9 1 2.5046782812 7.6178376042 0.484557933061
10 1 6.79159039198 3.32447222694 3.5003148916
11 1 -0.144266791047 -1.76463596074 3.11659041659
12 1 6.22101282646 2.14688535294 -1.43436610326
13 1 2.72589181412 7.86146768922 8.07183959937
14 1 -0.309114294224 4.38127114689 0.27889502526
15 1 4.00084001349 4.22065164139 6.42089727716
16 1 8.02544958728 8.65984145467 3.78203663435
17 1 5.35045468627 0.300508022451 0.425496546366
18 1 1.80114288511 -0.582741868341 7.19126812246
19 1 -1.10228637717 6.60231726572 0.758729085616
20 1 0.0967948146428 0.343027224361 6.82046100872
21 1 5.238351872 6.94573979338 7.71734963587
22 1 4.20367394298 -0.771663732558 -0.719862925211
23 1 -0.0533919012652 5.69219765474 0.471624479894
24 1 6.25902643412 1.03333140927 -0.942801565126
25 1 0.22911326186 -0.661047266003 3.54772172834
26 1 5.1364285518 4.13277941062 5.31635434909
27 1 -0.00139154739076 1.69034513157 6.9407615382
28 1 8.15146157401 -3.01832073225 0.178902171383
29 1 1.52837808259 6.40206874864 -0.193931537471
30 1 8.13501866808 -1.44668209441 1.19211745404
31 1 -1.15086182141 2.55208548482 7.30936347505
32 1 1.96738844265 6.43566252817 -1.61999908966
33 1 11.4303130245 6.14373723031 2.67271261428
34 1 10.1546774094 0.0187935777815 -0.680893422155
35 1 11.9998878259 0.784511663624 5.71327148869
36 1 7.57824693392 3.61920064669 2.23569451451
37 1 12.707514499 1.90328911004 0.207827161555
38 1 13.619599584 8.57273175963 8.06303443021
39 1 7.05768283541 3.61991367702 -1.40738165827
40 1 10.1710724582 -1.99108051655 6.83524835685
41 1 10.4505480882 5.0268450777 1.87214270976
42 1 16.6625425063 4.07425823088 3.17807502841
43 1 7.65392136993 0.13400790078 3.56755324374
44 1 14.8799155865 2.1861288229 -1.60142069305
45 1 12.3707692021 7.29345701845 5.5793710664
46 1 8.19728368975 4.16023319357 -0.810669888563
47 1 10.9967515518 7.03655810609 6.46448037974
48 1 13.2156118975 4.82106748916 4.01047975828
49 1 13.6750187201 1.61471928029 1.10572671359
50 1 11.359100597 -1.3062799 6.8459634112
51 1 7.42260837743 4.95812706327 1.43110752181
52 1 10.4263639221 0.210759620816 3.85570402422
53 1 11.9593825617 5.18845884893 3.65286544584
54 1 10.4631815389 0.0298183281249 0.76273819498
55 1 10.8630288103 3.65368480484 1.48385438671
56 1 15.0793406631 1.14081985496 -0.606774035245
57 1 9.07638535725 0.0111463006371 4.39730976527
58 1 13.392267 8.36791600195 6.2003600428
59 1 11.0889379023 0.393758624603 6.81601133769
60 1 14.861697083 1.06312579193 1.07516218747
61 1 11.6217415459 3.09653057843 0.238924510562
62 1 15.1396294433 -0.111502287116 1.7751981739
63 1 9.38291522922 0.226236085255 5.88563388049
64 1 9.70618885256 6.49334216808 -3.53406748183
65 1 17.5124769628 -0.429185554545 5.95263190916
66 1 18.1537002725 0.073533161523 0.282996941443
67 1 20.0821654224 0.517608419281 3.1967192927
68 1 15.6395289673 5.96440224497 1.68320192512
69 1 18.95290498 0.735424427917 2.01234888939
70 1 20.9727671751 1.19466509161 6.69324769128
71 1 13.8696004828 2.58874834186 -2.43146222077
72 1 17.3125419501 -1.41618810862 5.40871526194
73 1 17.5018922414 5.65050810652 0.157177883032
74 1 24.6658370687 8.47583360354 -1.80609442027
75 1 16.6265334157 -0.418568366081 2.72287171729
76 1 20.8828038574 2.57902838611 -1.06978834138
77 1 17.2054336848 7.3489452584 7.58407856933
78 1 17.4020251389 0.400945618473 1.67788549351
79 1 19.2561667143 6.1151299576 4.89216029302
80 1 20.7923109125 5.79759799553 5.93323152681
81 1 21.017938495 0.0949930417695 -2.23489592994
82 1 18.2673713122 -3.1105420409 5.68736244296
83 1 16.945904192 6.3235561408 1.34975175333
84 1 16.2429328468 0.789900944524 5.71484610457
85 1 21.7504935392 0.0229983941792 7.35624959791
86 1 18.1961367493 -1.19023817223 -0.424775206039
87 1 17.1335503564 5.41674818467 -1.54464575177
88 1 20.4291186757 0.979613464026 -0.907614854658
89 1 16.4102533724 -0.776783479192 4.32581782729
90 1 21.3675333202 6.32013342515 7.11324806609
91 1 14.8493151211 0.293236732069 6.047591141
92 1 19.4867072328 -1.75136348079 0.790689208866
93 1 20.2544538188 8.14687919372 -1.4398968534
94 1 20.6197338446 -0.831238134218 1.29664439031
95 1 13.493688959 0.604511458544 5.98627196839
96 1 19.5385827338 8.43619439239 -3.11923878434
97 1 23.1280067276 1.80853106238 3.53860207175
98 1 25.2078935476 -0.733338522467 0.618226471348
99 1 28.1239085716 5.61785374519 3.18998023182
100 1 26.2197358838 6.66512206861 -0.779856250162
101 1 25.1851539233 3.2128649585 2.55037621304
102 1 30.3377796253 4.18929506254 6.62001386385
103 1 22.5438978101 2.72827958091 -0.858756687677
104 1 25.4002621909 -1.61460452345 7.68947077735
105 1 24.344444434 2.79611923475 3.53899656431
106 1 30.4132219802 7.91033693456 2.26727272745
107 1 21.071729516 -0.745064264249 2.90130266918
108 1 28.1477892484 2.75025177275 -0.832528803609
109 1 25.9713540505 6.54418062354 6.20432375305
110 1 23.5525231703 1.34626862653 -0.402535273892
111 1 27.9371687206 0.00425760320004 7.2499798402
112 1 29.226466328 5.90541438266 3.81844823891
113 1 28.0131488453 -0.0095646993095 0.0696607109621
114 1 23.8972286102 -1.43766241539 7.52950626665
115 1 24.9206643658 6.9084844076 -1.46961298647
116 1 23.0862845824 0.368754119152 4.28899820705
117 1 29.5214500867 3.70905821639 5.10369924145
118 1 27.030844135 -0.551596397834 -1.10681288837
119 1 26.502667876 4.966774584 -0.206817025433
120 1 27.8349686173 1.56905920715 0.27311099035
121 1 22.4928139376 -0.633434871952 3.17598939116
122 1 25.2208830318 7.24405865736 5.21801037821
123 1 23.0546734857 -0.191872847974 7.23257958146
124 1 29.4813291209 -0.628778767951 0.305588609223
125 1 23.6306004559 6.26648016905 -1.34343033483
126 1 30.047758264 -1.51509682012 1.55194127668
127 1 23.7023950491 0.0751779384967 5.71978660011
128 1 23.1151163626 4.637973299 -1.14972627794
129 1 33.6746541811 2.91491857062 4.39480395276
130 1 34.3049731557 0.00608217197727 0.998771602593
131 1 39.2671939213 4.51624158745 6.70609340755
132 1 29.4546025011 6.77790727572 0.55705257046
133 1 39.22044939 1.36059656961 -1.54355084403
134 1 38.1932556528 1.69660814325 7.43765290039
135 1 29.3531121492 3.08757427433 -1.2000411746
136 1 33.7061060005 -0.327994688321 8.25771108942
137 1 31.4641267073 5.96245674297 -0.91317244702
138 1 37.4262307324 9.06905200369 3.28872192398
139 1 29.5203143444 -2.27129696214 2.9678963981
140 1 37.6887079557 3.22665499068 -0.578082268815
141 1 34.6253046189 5.73070260954 7.67603104409
142 1 29.9382260659 4.45228331102 -1.27160913043
143 1 38.2349493461 3.3531944368 5.70232041592
144 1 37.8474597793 8.84054045855 4.97122312475
145 1 36.9308612417 1.11247689368 0.529519215747
146 1 32.3762846176 -1.30798507595 8.01371040033
147 1 29.9554685767 6.16074266452 -0.909762148732
148 1 33.214810413 1.75089721847 3.27420188893
149 1 38.4033243679 1.75726352774 5.94784332819
150 1 35.4668065958 0.84923007066 0.167075567938
151 1 36.1479130081 3.56763111437 0.394737265313
152 1 38.5812692527 2.35266339667 -0.754853019838
153 1 28.6240984854 -2.91284252721 3.95883021573
154 1 36.78706987 8.18748213779 5.57445949181
155 1 31.2515169814 -0.795885139425 8.64598960771
156 1 37.45399585 0.531770157323 2.26160293966
157 1 35.3248827686 4.60680583011 0.588019411447
158 1 36.9114660237 -0.498833433301 3.44299970962
159 1 32.8464675306 1.171532049 5.97129624468
160 1 34.9812249123 5.7231025595 -0.319437243896
161 1 -0.622649332065 10.8962140848 3.30939605984
162 1 2.33413072841 7.36360309572 -2.12448840289
163 1 0.725857707457 10.8634214176 2.33357834422
164 1 -0.567363095151 13.4359793085 2.52874086181
165 1 4.213025718 8.01823874678 2.84520557189
166 1 4.91812534267 12.3153495341 6.95345465585
167 1 -0.86908826346 10.444742179 -0.80831601453
168 1 1.17384563318 9.40332393834 6.22769357594
169 1 1.99404161002 10.0912566417 2.72135783908
170 1 7.29461172575 13.4254037688 2.40685101108
171 1 -1.79271753772 8.36726965328 2.79466160124
172 1 7.58914647106 10.6624460237 -0.948509230683
173 1 1.92941031732 13.0595341816 7.43255085669
174 1 -0.936788856459 10.8019330808 0.456695983284
175 1 6.6050609785 14.4112566142 4.96193885216
176 1 7.78600581614 13.8446933072 3.87849732229
177 1 6.18458556801 10.2356520398 0.814730044995
178 1 0.773865251824 10.0833876449 5.03070134185
179 1 0.363862150893 13.2176864505 1.04341515935
180 1 -0.820474660801 10.5708998899 4.74408258628
181 1 5.92944964589 11.6720159615 7.35117230837
182 1 3.88440356032 7.7569581827 -2.19443988727
183 1 0.215400229631 11.5025658575 1.06320687955
184 1 6.25287065213 11.0357452978 -0.718100591994
185 1 -1.31863019153 8.1479523444 4.22042074557
186 1 4.27644041253 16.450083005 10.7421590787
187 1 -1.62034968514 11.4362143 5.59804838412
188 1 4.69755685266 8.46289369819 -1.18457625931
189 1 1.5691950353 14.3096432715 0.937955956163
190 1 6.39510709608 12.0501573144 3.27038306678
191 1 -2.91211719302 11.1771264583 5.99514311806
192 1 2.20604698504 14.3917803617 -0.579217272762
193 1 5.87710203049 11.2248502491 1.93031678251
194 1 9.8064736937 7.09773496969 -2.46345053041
195 1 12.341074405 10.6099924605 2.66868810812
196 1 10.9645320335 12.5893990855 1.52545047048
197 1 12.6241497736 9.04083308032 2.00217864155
198 1 12.7530309491 8.85354191081 8.9962371798
199 1 6.5293605512 12.5736100453 -4.69660526136
200 1 8.98170513905 5.92229496843 7.91233234899
201 1 13.8033142492 12.5485620322 1.17003786567
202 1 14.2310760676 15.598990535 2.34365921379
203 1 7.47894800858 7.20552376074 4.25373116683
204 1 13.9719927387 11.5630974236 -1.49210845427
205 1 12.4189220001 13.1652762519 6.05158667743
206 1 8.77559904141 11.3616943227 -0.523554553814
207 1 11.704818396 14.7913680641 3.57345247422
208 1 12.4666537159 14.1018781947 2.6970375788
209 1 11.9164397822 8.77514178619 0.623138515468
210 1 10.5569004126 8.92400351539 4.46966222231
211 1 10.055180932 11.7717942806 0.173195387261
212 1 10.3966258877 10.4613419845 4.07928502437
213 1 18.5921303054 17.1020616025 6.51332204706
214 1 10.7266563647 7.8000070978 -1.38884935436
215 1 12.4498650594 12.1847267375 1.92374552891
216 1 13.8035956431 11.5388099895 -0.267188288136
217 1 9.49694683954 9.66272963105 6.8869123282
218 1 11.6174460881 13.9502512944 4.91041776462
219 1 10.0891221232 8.1180686414 5.25943179841
220 1 10.7238807425 8.06244621396 0.0327419905744
221 1 8.44889298167 16.624418095 -1.1508930209
222 1 15.3956851806 4.52014166615 2.19669778057
223 1 5.74973007123 9.88445708155 7.49395804097
224 1 9.54087755799 16.0887538021 -2.0353592151
225 1 19.1126754494 7.9452200794 2.99831656446
226 1 18.6699595786 7.53396025157 -3.3077418666
227 1 16.4968381196 13.8211974349 3.12346608504
228 1 16.8633241286 14.503859873 1.56561390616
229 1 19.9076187444 9.18938069767 3.35158489861
230 1 22.5414456771 11.2047681934 6.23223023242
231 1 15.6446124209 11.9092139218 -2.49423881925
232 1 18.3501816806 7.82725654408 7.05097665161
233 1 17.3629393013 13.103944095 4.50716921055
234 1 22.9084957507 15.0382883878 5.54281885105
235 1 15.0103039044 8.83947953048 4.09380302954
236 1 20.5894415893 9.19633177157 -0.922221193565
237 1 18.5257054276 14.7094478828 9.9022074901
238 1 17.6829391583 11.290026616 -0.949365933643
239 1 21.8971755373 14.7530090004 2.80296676793
240 1 22.2366395884 13.2421109187 3.87455319218
241 1 20.6548940449 10.1315822767 2.21729722088
242 1 19.8994198779 10.7290482459 5.42870453802
243 1 16.4656879586 14.6097916323 0.259708561327
244 1 18.0926129124 9.82152662455 4.29505998451
245 1 20.6851828238 11.9300008798 2.85700961664
246 1 20.0884341387 6.85329548754 -0.681856227109
247 1 17.9215971459 12.1656254925 0.408052324821
248 1 19.8454027121 10.570964857 -0.920741139828
249 1 14.284911015 7.44825987014 4.89533759547
250 1 21.5046878101 12.2721184114 4.11442323032
251 1 19.5764776499 9.69501789927 4.54120965751
252 1 20.0890797291 10.3866139721 0.928822860423
253 1 14.253142799 15.9582033152 -0.627188982777
254 1 22.7961942693 10.116875986 0.541353546839
255 1 12.6774784204 10.3789588616 8.83472330731
256 1 16.6934789519 12.1259020064 -1.61669801404
257 1 26.7714097206 10.7797082641 7.21049679038
258 1 25.0409342044 9.85066105871 1.98805883414
259 1 25.7385453633 12.0832931539 0.699785973569
260 1 22.5099560928 13.766650509 1.30813235241
261 1 26.915363879 12.0326650291 -0.0524630722668
262 1 29.9255854207 8.64033046483 5.19339018927
263 1 24.9384030338 10.8337726458 0.625110977577
264 1 26.6763463621 12.0432284026 2.3033740594
265 1 27.4587473668 13.2876805046 2.61300599784
266 1 31.3254229863 14.1026005569 4.54175204669
267 1 22.2398918415 9.26343849982 -0.185964106623
268 1 29.7357102805 10.6465801206 -0.0963641143464
269 1 26.5952541161 15.5968699316 6.77940908521
270 1 23.5230049791 11.1219238134 0.187086528541
271 1 26.932354034 14.315334479 2.03343320902
272 1 27.3816414358 15.0136340503 0.900216299619
273 1 27.6807771058 10.6978886357 -0.507825757885
274 1 24.6640019598 7.60661049232 8.05885174429
275 1 23.4306539227 12.7736318704 0.720223466267
276 1 26.077578776 10.4972641703 2.78401770561
277 1 27.019057038 10.0585421194 5.72910626189
278 1 26.8645568704 9.66327422074 -1.57544542547
279 1 26.445171576 9.83022694703 -3.08737480232
280 1 28.5098959656 9.84220342754 0.192526183772
281 1 23.729043448 10.4021008358 6.7798678914
282 1 27.4697101137 10.3767104017 8.62249841597
283 1 23.80126926 13.7215627204 5.83200989664
284 1 28.2059457068 8.87559085871 1.20096133312
285 1 27.0791602258 11.1119660092 -3.93322604523
286 1 29.348377893 8.36961258372 1.54732525672
287 1 23.2727652305 12.2933761623 5.45602672992
288 1 26.8577485335 15.0636263061 -0.475445502914
289 1 35.6117140113 10.7091462482 5.08799600736
290 1 35.0190336511 7.03895222538 -0.223823795487
291 1 34.3492806115 11.1489435357 4.71583841218
292 1 30.1749125884 13.3679071762 2.22402581834
293 1 37.258411436 10.1836619831 0.116845722912
294 1 41.7191777093 13.1061161631 5.38920801639
295 1 30.8608940788 11.3648598287 -0.951416764187
296 1 33.5670324195 8.35820996366 7.35618526473
297 1 32.8811929529 13.247671296 0.00823594851455
298 1 39.0327931002 15.3553143793 3.56490647796
299 1 30.4957622823 6.52031834306 3.5284181863
300 1 38.67641823 12.0145181273 -0.881110615243
301 1 36.9197750441 11.816076365 4.85081591195
302 1 31.2869388845 13.037871517 -0.463702519043
303 1 33.5723068812 11.4555879472 3.6813528719
304 1 39.0843946125 15.2490915448 5.1597931642
305 1 37.0336023245 8.75076908675 -0.408449164699
306 1 31.2089101889 9.2090384293 6.4594767889
307 1 30.4166153404 12.9417098939 0.911487014865
308 1 30.9963882732 10.9472096603 6.6180896696
309 1 37.7432272693 12.6038113706 6.02590293172
310 1 36.1656088088 7.92633836365 -1.03143539347
311 1 33.3011768142 14.7606516602 0.0829527224044
312 1 40.0917145484 12.2129267265 -1.50617496686
313 1 30.3884896225 11.0903488048 5.36240193851
314 1 38.7349311364 13.5822265478 5.58762599632
315 1 32.174084785 8.33613547424 6.87396022986
316 1 37.2782229169 7.74490163491 1.05582350015
317 1 34.3105115989 15.420659098 -0.871896094784
318 1 37.9757412201 8.24584370616 2.14167561214
319 1 29.4699757198 9.9884256087 4.69282165785
320 1 34.4377993069 14.8809384061 -2.4360330897
321 1 1.8296285204 18.4091400439 3.88169719829
322 1 2.99465683426 15.7724898247 -0.197682812708
323 1 2.38479076441 21.7723309572 5.09297258695
324 1 -1.85181656188 21.6302604991 2.1211433791
325 1 5.32725008241 17.5298959839 3.34839749921
326 1 4.74542629691 19.7623891392 7.80553103926
327 1 0.964647450592 18.2812423425 0.727654318866
328 1 2.76281141126 14.1842122459 8.26675922542
329 1 1.74851985533 20.1332299211 3.50081376615
330 1 8.76321665949 22.715054168 2.68940687405
331 1 -0.295192636056 14.3771497434 3.51974096727
332 1 5.2970447301 19.5515361929 -0.339497831839
333 1 6.44572353152 23.6789595775 4.05139364862
334 1 0.346503296357 19.8309315784 1.4541985952
335 1 2.61877655858 21.1435318085 4.15342660793
336 1 6.55440488622 18.0842641519 3.85680933714
337 1 5.01192487244 17.075651061 -1.36866273192
338 1 -1.59330206258 14.971228249 5.92907113338
339 1 -0.331045307265 20.4759526792 0.531033951114
340 1 0.285274185828 17.8481510484 4.71859877432
341 1 6.52131708946 19.193334966 4.5772259349
342 1 3.72317671005 16.6079259805 -1.26335628035
343 1 0.622738941111 20.3753723846 2.84749906232
344 1 5.66463322126 18.362899643 -0.793348438981
345 1 -1.66423470715 14.7794651737 4.53235995239
346 1 3.3656021926 19.9461248561 7.02132532234
347 1 -0.842520526061 17.7148161876 5.97177261627
348 1 5.82873891061 15.6503008404 -1.03451619128
349 1 1.49766879409 22.5080410277 -1.6682425831
350 1 7.21719995226 15.6211091032 -0.826195916549
351 1 -2.46707814392 18.1452877797 6.3837811967
352 1 2.65579589142 21.2454687874 -2.16818418808
353 1 10.1337425674 15.6026183727 3.91342225432
354 1 10.2689966184 15.3179894081 -0.936599695826
355 1 12.2579351767 18.6211911701 4.03596276037
356 1 8.61102452596 20.6532719764 0.732952934106
357 1 11.8973655663 18.8027759142 2.69837744839
358 1 14.3347585502 17.5965532024 7.09292647326
359 1 6.15598950029 21.0428974965 -0.705560876891
360 1 12.432562954 19.0262274872 7.80345087318
361 1 9.98256862169 21.5900674899 0.951078627661
362 1 14.0092385991 20.6999172793 6.55631189083
363 1 5.08224261133 15.7502025741 3.41903113594
364 1 13.7345567108 19.4104858587 -1.37156461289
365 1 10.5650287846 22.2992432489 6.56270427302
366 1 7.5445271588 20.6705709833 -0.523732281741
367 1 12.8374162672 19.6584297067 5.07889089911
368 1 11.3742595347 20.8394008399 1.22149550853
369 1 14.9438331886 18.5542279038 0.463946748044
370 1 9.4289029592 14.2935181695 3.92137854527
371 1 8.51162859771 21.7694309543 -0.90745725707
372 1 8.68024428324 16.34996141 3.36478140693
373 1 15.5936472125 18.3211211198 7.10185160087
374 1 11.5976681358 15.7664514528 -0.573223377129
375 1 11.2731388628 17.7079051582 2.04221283521
376 1 13.7167412021 18.0266288277 -0.441175867827
377 1 10.9322149329 15.9158553363 5.26761853014
378 1 18.2260910928 22.0889888234 4.11806769557
379 1 7.1018358826 20.8278930388 4.34001752867
380 1 12.9708081808 15.2982590181 0.003905349031
381 1 9.03043379106 21.9254295454 -2.12620693697
382 1 13.830266381 13.7221145701 0.29574031288
383 1 5.46828842539 15.3486821393 4.96085243572
384 1 9.47351900363 23.1480897675 -2.81232672819
385 1 14.852525099 19.9881604002 3.6072972627
386 1 19.9885854503 17.0168966732 -0.121073563054
387 1 17.974539748 21.3192802422 2.94662326062
388 1 15.3842665875 19.7670872968 0.0871847951021
389 1 19.4240733039 18.2030111521 -0.71248786798
390 1 23.2913100773 20.1335772333 6.81051714644
391 1 15.5697360436 21.2004099319 -3.22232093965
392 1 16.0307112639 14.8825626147 10.201750157
393 1 16.5614028262 21.0050049782 2.06219210561
394 1 20.3148129179 21.4492472655 1.55087217038
395 1 13.5410972178 14.4648547053 1.71842194629
396 1 21.9433906983 16.7459237543 -3.71554121081
397 1 19.2535868226 21.800778192 2.27378130633
398 1 16.302290189 20.7953698559 -2.17899391772
399 1 21.2525907471 21.9425568464 7.00630563895
400 1 21.8727921025 22.9716278481 6.24470620632
401 1 15.530574847 15.5103815687 -0.737895427896
402 1 15.6684552911 14.9990661369 3.44128254326
403 1 16.0971670937 19.9648642287 -1.07605521732
404 1 14.9799396909 18.7449008198 4.0244905012
405 1 22.2598681032 18.2837863572 4.55994620822
406 1 18.395684196 16.3081879152 -0.190590506353
407 1 20.3342274117 19.6454221134 -0.415429330166
408 1 22.4378171124 16.1326162945 -2.41778473821
409 1 18.7715871723 16.0061988145 7.10053168855
410 1 20.1055097452 21.7841255413 7.44285130327
411 1 18.7725048099 19.6229603598 6.05647046992
412 1 22.3721251973 16.978162951 -1.19460717032
413 1 19.8999324684 20.6380653953 0.247928950311
414 1 21.4232919165 16.3966609255 -0.258623643346
415 1 13.3947677996 17.1697152602 6.11071524488
416 1 19.2962818109 21.8208341148 -0.797915347419
417 1 24.9696701736 17.9658048028 3.88433162943
418 1 27.042858819 16.0069760404 -1.78837387644
419 1 23.4283918881 18.4855786407 3.8251910114
420 1 23.3752682636 20.7549944758 0.265519184447
421 1 24.9684441713 18.7102335305 0.944246257643
422 1 27.5985755823 18.8794849007 6.45170535235
423 1 23.4080323627 18.7404044457 0.292327705152
424 1 27.6952066695 15.5438244225 6.18312543103
425 1 25.1099086933 20.22543731 1.36351768793
426 1 31.5476077985 21.7834548066 3.24975961533
427 1 21.499836696 17.0614240615 4.22756640346
428 1 29.5895069124 18.4461253787 -3.43266536142
429 1 29.0332503391 21.5939981976 7.44332458446
430 1 23.7569364525 17.8306792142 -0.413206574937
431 1 30.0564371722 20.0018222025 4.29682477257
432 1 30.7995344366 22.622499582 2.3394707966
433 1 30.0970945022 17.629027256 2.04302354415
434 1 23.9593931944 17.1965462136 6.7040693342
435 1 24.6507136182 21.5689385875 0.235015516572
436 1 27.6757688008 18.2147050486 1.66417937027
437 1 31.2036206418 20.4410773061 3.85262079953
438 1 27.6818153884 17.3670559864 -2.0321734021
439 1 21.9807640674 21.0455405207 1.57416809719
440 1 29.8913647356 19.0359169105 0.321857698496
441 1 22.3343197332 15.8973044414 4.15838217822
442 1 25.121991435 17.7285164343 5.5584416383
443 1 25.4348271016 16.2401854399 7.77516773373
444 1 27.1353087251 12.434305026 -3.68822274669
445 1 26.0322039752 22.0083372709 -0.811019006144
446 1 29.0494167925 17.7624758824 1.15567223168
447 1 22.0267262648 19.9685203473 5.13991403421
448 1 27.5517756318 25.39367038 -5.44227081962
449 1 37.2869943736 17.5380663833 4.8692327924
450 1 35.5251988213 14.7649169973 -3.08412516811
451 1 36.9936677047 17.5807696721 6.3437266719
452 1 29.936370091 22.5122600739 -0.621264244784
453 1 37.7681873003 13.959153026 0.679067686764
454 1 39.218473543 19.1960117887 7.1210711347
455 1 28.6890274763 17.9501275115 -2.44972315998
456 1 30.9724980267 15.8210795958 5.02146430477
457 1 35.4187040534 20.5389238305 -1.02071572636
458 1 38.4552840712 24.2007982275 3.17979516154
459 1 31.329995475 13.5372997214 3.40868642981
460 1 38.5733144872 20.8351743667 -0.522003538868
461 1 36.0277417029 19.8138700502 6.00528679843
462 1 31.0429596616 19.3698076874 -0.506501909323
463 1 32.4059566622 24.3195839228 2.8482473673
464 1 37.2419117794 25.2466047856 3.18413436922
465 1 38.7523469104 15.2241141577 0.734255919631
466 1 35.169153971 13.6188625939 8.35721381658
467 1 30.8073211829 21.1633767246 -0.55770461648
468 1 32.2433112016 19.749244505 4.22710982874
469 1 40.2929080023 19.6450845836 7.15701662142
470 1 36.0259462929 15.6175937765 -0.793401666175
471 1 31.8522362742 18.4287591467 -1.15624940747
472 1 37.8528542601 20.2563228657 -1.36740605019
473 1 31.9825561395 19.0477493733 5.50242416135
474 1 40.8079617613 20.6917513521 8.49618308154
475 1 28.8004842894 16.5297452018 5.73750219698
476 1 39.1842267041 16.1854482393 1.520300723
477 1 32.2279447746 21.2789720087 -0.87455921335
478 1 38.8591853288 16.1876473428 2.74844558128
479 1 30.1215009436 15.6474882309 6.2673164561
480 1 33.2462647724 21.9709307994 -0.014318795449
481 1 -0.157121327355 26.9040986136 3.15038031658
482 1 1.80906455902 23.6728528765 -0.866245543974
483 1 8.7113361888 25.2622247734 6.23395021734
484 1 0.445228759414 30.3828247332 -0.430552914749
485 1 4.71242570733 24.6848450777 0.0885609584162
486 1 5.77239223718 24.5479973188 8.39901571302
487 1 1.12158695547 24.6460340986 0.233765664102
488 1 -0.372777046064 23.5958726905 10.6888988873
489 1 1.23672154302 28.2600647408 3.26567533707
490 1 5.83112460595 29.3523476009 3.8918348774
491 1 -0.777797900749 22.7869641054 3.05601884691
492 1 9.14938641076 24.4027451145 0.137672533217
493 1 2.40092263054 30.2036219167 6.3252743949
494 1 0.117189392068 26.160116446 0.0228593189682
495 1 2.27881442177 27.523231314 2.59463031565
496 1 3.72612990626 27.1493224251 2.7848477202
497 1 4.09865623191 25.108714767 -1.34519004361
498 1 1.14559597354 27.958479842 4.67039501396
499 1 1.08232909568 31.0353789808 0.480427803995
500 1 -2.15294861105 25.2826596067 1.72236454046
501 1 3.28989070908 27.5805402072 5.99677800758
502 1 2.79928870994 24.4044817354 -1.77938191488
503 1 0.776355368478 26.5928872925 -1.14654374696
504 1 8.22252837084 25.9805353939 0.706433896865
505 1 -0.647561250369 24.4668659315 2.31333256664
506 1 7.75952445029 26.0894841398 5.74155237819
507 1 -1.31493355036 23.779992948 9.38394271809
508 1 6.61643195346 25.7232789094 1.43570319876
509 1 1.57919831344 27.7578569025 -1.10768881782
510 1 5.36842067894 25.9502093237 0.605645664652
511 1 -3.59365370011 25.3865030406 8.4358978247
512 1 2.53135217931 31.0509742031 1.53820466376
513 1 12.0189437615 26.1018044141 5.13101001949
514 1 10.3363948133 24.0612379819 -3.29987951414
515 1 11.7261874932 26.2037921022 3.63578416664
516 1 10.13862248 27.3352205201 1.50243962601
517 1 12.2861860654 25.2922312879 2.76987378537
518 1 14.7713316438 28.1311711566 4.88588673934
519 1 8.08867003705 23.0720572947 -0.0182327469519
520 1 11.8687140912 22.3914775049 5.35322686663
521 1 10.1467437646 26.4926711999 3.04948545826
522 1 11.5370054136 30.3660969297 3.3187771143
523 1 10.2017565165 22.5598649991 2.9546920694
524 1 13.9101980375 25.4147057711 -3.35185476604
525 1 12.0923859261 27.9077474417 7.15867589553
526 1 8.74597415707 27.2971732208 0.354123887388
527 1 11.5187044237 31.7525276853 5.8548602431
528 1 17.1009894794 28.5557835559 4.39764917238
529 1 10.2338174426 25.3723294985 -0.577138921035
530 1 12.1680153139 23.6845865758 5.06538475843
531 1 7.5526869386 28.4191966356 0.185403861639
532 1 11.0065682486 24.869113318 5.71080512438
533 1 13.123114151 28.6329692215 8.06221252676
534 1 11.1818109458 24.8740863382 -1.76615605143
535 1 11.6760041772 28.3117016853 -2.4667431521
536 1 15.5300927254 24.7716096107 0.747991875842
537 1 7.646904172 22.8157286117 3.73157906239
538 1 12.2752596043 30.8405067391 4.82316795966
539 1 5.70086629264 21.8145695472 8.06531473873
540 1 14.3420120953 24.7370748434 1.97013077178
541 1 9.86725024641 26.7738006484 -0.705505942159
542 1 13.2329988809 25.7153010993 1.95351209631
543 1 6.89372610174 30.787080379 12.7827875653
544 1 11.9749441556 28.3077548701 -0.914086285045
545 1 19.0968553075 24.9521552564 3.31252597951
546 1 18.3995597273 23.1611441212 -1.52929894088
547 1 18.2226459551 27.2419703875 2.18726304456
548 1 17.7302245161 32.1791321235 3.9704677942
549 1 21.2114694798 25.7566294306 2.93811866638
550 1 22.2150705259 25.5475558344 6.33125601436
551 1 14.6038637642 26.5909557987 -2.67526797985
552 1 16.8059656141 22.8219660424 9.62795959843
553 1 18.1935150706 27.7569170366 0.851933510773
554 1 23.1162906727 30.3671708759 -0.00938552160965
555 1 16.3372059729 21.6959562548 0.653487072176
556 1 22.6136197718 25.8504686307 -1.77894475214
557 1 18.781086717 27.1968138478 7.82153233558
558 1 15.9910925385 27.0016943088 -2.16662813956
559 1 20.0343369132 28.3924155471 4.38511515715
560 1 20.6222777923 29.8266798249 6.63787027892
561 1 20.1326995094 23.9748773008 0.292476059766
562 1 17.2485697705 22.0861622736 5.54521782399
563 1 16.6880718926 26.1387575332 -1.01663564191
564 1 18.7525605975 25.9472952239 2.37635894465
565 1 18.3539678778 27.9530658838 3.6141525191
566 1 18.7293823827 24.3764455436 -0.340144050388
567 1 18.0379165451 26.9909675998 -0.539781972589
568 1 22.3918222046 25.6950619378 -0.0482641713728
569 1 16.5499767655 23.5623182634 5.99942903706
570 1 18.3212047113 28.2624054854 6.59704447244
571 1 18.5231869818 23.8264248357 3.83048284036
572 1 22.9623194005 24.4385026833 0.561341480265
573 1 16.0584920083 28.5860800163 -2.28639576511
574 1 23.7434334135 23.6947465298 1.53180682791
575 1 14.3726087472 26.959909934 10.0986557369
576 1 17.3751501657 29.5341618323 -1.95261150398
577 1 27.4120047769 27.3206376255 3.73737330079
578 1 27.4366108961 22.3980096412 -0.556471578533
579 1 31.6586571245 28.8210847492 0.392207140205
580 1 24.0898825501 29.143448195 0.0949908604228
581 1 28.2730789462 26.7420550812 2.59077122622
582 1 31.8469363611 26.8476595405 6.52080197052
583 1 21.6600308175 25.1431015516 -2.76551256228
584 1 24.5646436608 27.0981059238 5.26766063743
585 1 25.8215191302 27.6631590938 3.4289265961
586 1 30.4519483319 27.9871677179 4.99300352497
587 1 22.1577910224 22.6800468167 4.52577219696
588 1 29.9072588653 27.2276685964 -0.938037304089
589 1 26.3455266773 29.0329451066 5.4847470242
590 1 22.0219782465 26.7217961929 1.08841125712
591 1 21.5834240683 24.4579240306 7.01562641915
592 1 28.9038972978 27.7777698032 5.76210965995
593 1 27.3679917009 25.5978860164 1.14105697504
594 1 24.1390531852 23.448696925 3.04811716065
595 1 25.2179584068 28.0567784484 1.10630402562
596 1 23.4581146656 22.5041915031 3.87256048802
597 1 31.5071960122 27.1677330151 5.13688325024
598 1 27.6593341976 23.7077636968 -0.606309594622
599 1 24.6591793839 27.3306874788 2.50401342934
600 1 28.239478796 26.8837539186 -0.858468427152
601 1 22.3742401845 26.1684586223 2.06610471186
602 1 25.4325665872 28.3600197606 4.6334276196
603 1 21.0664833719 23.9760523183 9.73294408762
604 1 27.4323313457 25.7050864695 -0.310982805839
605 1 25.8323166973 28.6325084727 -3.27031272453
606 1 31.9027165701 25.6864293055 3.31622761524
607 1 23.7108851071 25.5812793771 5.98361414803
608 1 24.4515958659 28.6440318363 -1.94059204166
609 1 33.7119772335 24.7954658084 7.71117234837
610 1 34.7648700461 21.9688550202 -0.0189557763937
611 1 38.7040172421 26.9290087532 2.84214670771
612 1 28.3981901697 28.0803385602 4.38951525699
613 1 33.6929955294 23.9270345159 1.66222380782
614 1 37.6897424762 26.6997181799 5.77242135069
615 1 30.9234377081 26.3333701316 -1.5891815068
616 1 30.979670742 26.227848091 9.10530920068
617 1 33.3476071725 26.1294747525 1.70667407715
618 1 38.1986019621 29.9760036459 3.96806276842
619 1 30.598004672 25.6271126567 2.62366765789