USPEX

14 atoms
1 atom types

0.0 30.00 xlo xhi
0.0 30.00 ylo yhi
0.0 30.00 zlo zhi
0.00 0.00 0.00 xy xz yz

Atoms

1 1 3.87717499855 4.52621851627 6.10295613887
2 1 7.46046819772 7.39036317359 7.23655563729
3 1 3.83986626638 8.44225878721 10.1783661764
4 1 4.90208131514 7.19868370985 9.17636011119
5 1 5.10960616169 5.49600391871 7.23912528008
6 1 5.53706309756 7.40820654245 7.34657492038
7 1 8.90413904636 6.26197944864 4.28950613287
8 1 5.83594226674 5.48229310638 9.05232203084
9 1 8.15264839574 7.60148807554 5.42790774194
10 1 7.38336207634 4.64721863413 9.8628207153
11 1 6.93767130922 9.11891402912 5.35703928193
12 1 7.81422500532 9.30577786803 7.09881360392
13 1 9.4246435031 10.0992809624 7.79613243465
14 1 6.35009091384 10.2551543336 4.2222576389

