USPEX

14 atoms
1 atom types

0.0 30.00 xlo xhi
0.0 30.00 ylo yhi
0.0 30.00 zlo zhi
0.00 0.00 0.00 xy xz yz

Atoms

   1  1  4.186   5.118   6.729
2 1 6.40242540288 7.70163132134 6.04261212035
   3  1  4.206   7.949   9.427
4 1 4.07556224224 6.29740416525 9.11123820965
5 1 5.76000065809 5.00838574655 7.11453330975
6 1 6.60484946913 7.34494001524 7.9286252606
   7  1  8.918   6.811   4.939
8 1 5.92164533424 5.77840707394 8.87603703689
9 1 8.09371206969 7.92653037174 5.18620233868
  10  1  6.869   5.099   9.569
11 1 7.53520889495 9.85818044672 5.82090630897
12 1 7.97396969454 8.59552473201 7.22663026955
  13  1  8.939   9.626   7.653
  14  1  6.245   9.653   4.817

