USPEX

4000 atoms
1 atom types

-100.0 50.00 xlo xhi
-100.0 50.00 ylo yhi
-100.0 50.00 zlo zhi
0.00 0.00 0.00 xy xz yz

Atoms

1 1 4.47854103797 1.97195971588 4.92313187661
2 1 5.19487064019 -0.540480946659 -1.29211509822
3 1 4.96928199997 3.51347446533 4.51083733495
4 1 -0.0788483534852 6.81279720117 2.30147019953
5 1 2.67907487852 1.64224707411 -0.673053216033
6 1 5.05160292833 3.87422680065 7.66845832004
7 1 0.368945281155 4.02616803031 -0.0944607160982
8 1 3.8890140973 -1.27488861249 8.00900189518
9 1 1.58299152819 4.71226886491 2.76787413021
10 1 8.51909538556 5.79798353617 5.26430107901
11 1 0.536472898652 0.633265946529 2.24157859323
12 1 6.3279537667 3.58928288983 0.238302156679
13 1 5.26646145657 6.81367757932 7.24435004539
14 1 -0.154246192202 5.54903414435 0.608939573599
15 1 5.76049610188 4.83436340246 4.00750749976
16 1 6.43727389386 8.4893118034 3.90864995543
17 1 6.54532253565 4.73811917871 3.34592488212
18 1 2.33489909793 1.42365474671 6.56925192739
19 1 0.0618388985446 5.80413859409 2.02306397943
20 1 3.34037199881 1.59013207841 4.90804855317
21 1 6.35616234461 6.87026674997 6.56751160526
22 1 3.61496924575 1.3503082833 0.834855644621
23 1 3.68963307849 6.5785233522 3.24165525725
24 1 7.20406396686 2.08447059647 0.52619030245
25 1 -1.04409276671 0.850051153254 3.50933684742
26 1 4.45012044041 4.49043330669 8.80952382596
27 1 1.26439578069 2.57474359021 7.47022083551
28 1 5.33837768619 1.36098681523 2.88943483804
29 1 2.74295789523 5.21733028792 2.87051463503
30 1 6.60489617125 -0.315922342835 2.66167775863
31 1 1.26593103716 3.66400186031 6.85544601724
32 1 2.94681546918 6.5165516184 0.0994527953945
33 1 9.28659622729 3.27742952961 2.8985604165
34 1 11.3549458468 -0.357743519892 -0.742527279713
35 1 12.4122005282 6.52402592681 4.10602613821
36 1 6.53399920346 7.45164128949 3.0137850458
37 1 11.8876090263 1.97501405169 4.80624708832
38 1 13.1303860773 4.20762317494 6.74762996052
39 1 7.79935105685 4.57288471424 -0.984167751669
40 1 11.091428502 -1.52884680242 6.52256411648
41 1 10.0645904261 4.44744619137 3.42133570985
42 1 14.8229563921 7.35521945997 4.15065929731
43 1 7.90241058665 -0.585162195442 1.81373301512
44 1 14.926375049 3.02455194034 -0.348978627493
45 1 14.0132470365 7.51005164684 6.08458786407
46 1 10.2545138749 5.46321479942 0.511266021043
47 1 13.9340211186 4.2410846077 4.27432379197
48 1 13.6300868614 6.73595292773 5.09075791702
49 1 12.3121340262 2.64556893146 0.973194231334
50 1 9.99910916949 0.363049987521 6.99225395247
51 1 9.10566088854 6.87740513173 3.02308337617
52 1 9.9911783173 2.23292790774 4.26889256549
53 1 13.4109539628 6.88192575862 7.69835962899
54 1 13.0011885148 0.445925180674 3.14576393983
55 1 10.3324735988 6.10478795506 2.07417399897
56 1 13.5111441383 1.91259829084 -0.140156342641
57 1 9.58590742941 1.55014851825 5.97687035998
58 1 13.7908435923 4.9674761573 5.33131688417
59 1 7.66484341734 1.10434869502 7.46753863834
60 1 13.9174990225 -0.0875674340736 1.84318605222
61 1 9.2697581708 4.27899005487 0.0740890521434
62 1 13.8868451362 0.391460182371 0.492402760329
63 1 8.47891112459 2.78823365305 6.77799393162
64 1 11.0453720627 6.57208102758 0.23940021965
65 1 17.6387534088 3.77740510904 2.58819362552
66 1 19.2914750201 0.212622226215 -0.259919232644
67 1 19.2781081134 4.77811359788 4.18598836656
68 1 15.2971707609 6.70080599594 1.15224635697
69 1 18.1549473419 2.07324395322 3.24349918355
70 1 20.5132550644 4.02361814991 7.23969844249
71 1 14.8817323911 4.30303621879 -0.17593973341
72 1 19.1602508937 -1.24827774814 8.00340306739
73 1 17.9007379542 5.15876357632 4.99694672541
74 1 20.9109812198 7.8976273377 4.85982461837
75 1 16.8882669542 -0.413487706558 6.901518665
76 1 21.6438771035 3.05277681551 -0.523359093424
77 1 19.452178559 6.71904957622 7.32855068643
78 1 14.8498639109 5.03428840839 0.972811819879
79 1 20.6762769779 5.26127302951 4.17690296883
80 1 21.589229655 5.18409843377 5.2129578292
81 1 20.7559951103 2.31227916747 2.15251508184
82 1 16.2433489006 0.923962460892 7.16156788518
83 1 17.8326879347 7.1063133448 2.23213541508
84 1 17.6955945429 1.8952083021 7.74453822054
85 1 20.4711333282 5.59291155568 7.19516093516
86 1 19.058189236 1.57106348416 0.140611707907
87 1 18.1678093686 4.45684714431 1.75370961088
88 1 19.9934718177 2.45197101445 1.11858771798
89 1 15.7274723466 0.475954311373 4.4922735495
90 1 19.5527207754 7.34747130346 4.87439060272
91 1 15.8285126381 1.74893679274 4.88530248684
92 1 22.7202259722 1.03426846357 2.38926302526
93 1 17.5754188394 5.82613786945 1.37893482857
94 1 21.2122848828 -0.334857506917 2.85560321479
95 1 16.8429782846 4.20872119203 6.94884849875
96 1 17.5988928256 6.56746258042 -0.315343793048
97 1 27.1578899721 3.55756227304 5.66520646279
98 1 25.8309383669 -1.59799446864 0.279445833323
99 1 25.8475117387 3.50069596741 5.36615053225
100 1 22.3250937752 6.8694097659 2.68503794832
101 1 26.9255624738 2.80899513252 2.7020480232
102 1 27.6990897892 2.67938384979 6.32258612272
103 1 23.1252384941 4.38801830288 -0.341318534098
104 1 25.866147746 0.79623088646 5.81404416923
105 1 26.1212296143 3.99581684996 2.92022680401
106 1 28.8007957435 7.23701218133 3.22446160537
107 1 23.4058277641 -1.13879752681 3.6238993771
108 1 29.0826161717 4.29908139811 1.40231831903
109 1 25.6827168494 6.92104636262 6.24742061212
110 1 23.0442457351 4.74901336239 1.17982375533
111 1 28.1334424984 4.74634816554 4.98373666562
112 1 27.9665769862 6.18153116343 6.30392470137
113 1 28.3401454313 2.25149241972 2.47945690531
114 1 24.8167901891 1.93204316057 7.21792509934
115 1 23.8650835972 5.51983216402 1.5158932954
116 1 24.9240335983 2.72372327165 4.87300367702
117 1 29.2325300951 5.96927599964 6.56897846858
118 1 27.2134651746 -0.444259437483 0.160088193346
119 1 24.6173698772 4.70921002367 2.83715816773
120 1 29.0479247452 2.80414859957 1.27839998417
121 1 23.4456195794 -0.0300887359451 4.64495014564
122 1 27.1155306412 7.24657244176 6.72359767125
123 1 23.418699185 2.79795277928 4.33370131882
124 1 28.4895700353 1.57570885863 3.43807192515
125 1 25.2265967419 6.86780864572 1.0709217728
126 1 30.1079114294 -1.267996621 2.24193666087
127 1 25.7633596624 1.69847339818 8.58900097697
128 1 25.058123531 7.20391158008 0.057013385029
129 1 33.0297232334 4.00211005468 6.60918641681
130 1 32.6132759952 -0.518938824906 -0.651749416413
131 1 34.6365618433 5.54688180071 4.92588475207
132 1 31.2625850455 7.1702452114 4.75978402504
133 1 34.6775311025 2.33092448893 3.16657282219
134 1 37.5613898764 3.93014059897 7.59552867291
135 1 31.8689576426 3.72451783128 -0.313054680195
136 1 33.4222757057 -0.864577208411 5.46577688356
137 1 32.9622388987 3.90027076267 2.39624410577
138 1 37.2479518893 7.29216577719 4.08497749084
139 1 30.1839540526 -1.10571823113 4.92933755838
140 1 40.3266425259 4.04245837495 -0.452224915411
141 1 34.3393909784 7.0371924971 6.52734461186
142 1 29.3720512899 5.23510242677 0.265965806089
143 1 35.1474587254 4.60031573376 5.18328994655
144 1 36.3210103949 6.97641704315 4.98848082472
145 1 33.1895694539 2.55058486739 2.6278857528
146 1 33.6581514921 1.24053355621 6.27231310688
147 1 30.7784464184 5.08430799902 -0.37690824359
148 1 32.7264222383 1.65388695907 6.01850138226
149 1 36.1772673409 4.84632040705 7.36668870643
150 1 36.8152347437 0.411512955824 1.87355502277
151 1 31.6722030946 4.56694909511 1.66213194304
152 1 36.7057095395 1.82127421765 -0.327740380036
153 1 30.3259026299 0.735313972319 5.06290952752
154 1 35.6753211162 6.21727284374 6.47140702038
155 1 31.0231834621 2.42267690568 6.26361086023
156 1 36.3850392724 1.702505933 3.17054849218
157 1 32.2334539519 7.03596404208 1.82699321599
158 1 38.2622024556 -0.18671755579 4.31465796212
159 1 31.1289869781 2.75570576614 8.02752708811
160 1 31.0798855436 7.38814485811 -0.224816178466
161 1 2.95032900434 11.2901497972 5.04629785602
162 1 4.02189650433 10.1113586529 -1.62067595367
163 1 6.02297572004 11.2242763398 4.26655171909
164 1 -0.234187003275 14.4980287331 4.70959868485
165 1 3.65493278407 9.11208151154 3.72848937121
166 1 6.45672063927 12.3428457234 7.38746450883
167 1 0.791431181525 11.6774709047 0.208466196083
168 1 3.4405859682 9.82345237809 8.52383410309
169 1 2.95689511913 12.1151909099 3.3802158106
170 1 5.66250744156 13.9790640015 3.06072943998
171 1 -0.70792088111 7.40076657753 3.43270023117
172 1 5.56915200036 10.8037888238 -0.706089383866
173 1 3.91301977044 15.8632134102 6.8526016329
174 1 -0.553438481062 11.9598980603 1.02101470363
175 1 3.90794429249 12.1354552735 5.70817495074
176 1 6.0469709457 14.2245241619 6.57267071574
177 1 5.90508998312 10.8207604967 0.997377070262
178 1 3.68250916934 8.76768134147 7.3434674019
179 1 0.952818302888 13.5943197198 2.16889937584
180 1 1.45207894368 11.0227870265 4.72343710438
181 1 7.30483800951 11.6756532839 4.13331338668
182 1 3.17579555219 7.2583945982 -1.73476412754
183 1 1.92796104615 12.274516321 2.21900802096
184 1 7.26484781183 11.1951018626 1.74578154843
185 1 1.99310206163 8.05080231387 4.91112977525
186 1 4.97935143342 12.9967726054 5.53384658476
187 1 0.328794929922 11.2395769532 5.91163068179
188 1 5.42582677154 9.50533506252 4.06165090541
189 1 5.90144614722 13.8500988546 -0.801664037199
190 1 8.09484639417 7.60471487109 2.22818722401
191 1 -1.017725259 10.8628329464 7.01605811846
192 1 2.75846577136 15.5785261839 -1.1430795273
193 1 11.2060960294 10.5734701345 4.97006969476
194 1 11.6816447373 7.70049468871 1.11998547545
195 1 12.2729878792 12.7794541457 4.01232100019
196 1 7.40553628469 12.9779055971 4.88062289311
197 1 11.6162711177 10.5793418407 1.86632719299
198 1 13.4671645578 11.873994839 7.00755565327
199 1 8.4301083153 11.8377551426 -1.01091880219
200 1 9.14866078605 8.42332260129 7.21954005374
201 1 11.9720222455 13.3724856705 2.85431101119
202 1 14.842533632 14.9103397244 3.85049103823
203 1 7.73384606845 8.19706091381 5.06682624562
204 1 14.4645953523 10.9002849776 -0.167314532013
205 1 11.3855651944 12.9638742757 6.73699948201
206 1 8.82234625783 11.3952356309 0.705175497929
207 1 13.8598798933 11.9289163304 4.41336670049
208 1 15.0070997897 12.820174164 4.87160528542
209 1 12.750037499 9.42501993879 2.19579658755
210 1 10.7561594639 7.38126161677 5.04930565273
211 1 9.46356844109 12.0098035649 2.05268836435
212 1 9.65089141966 10.4198680155 5.31741327856
213 1 12.7576849397 12.8034010057 7.4107562234
214 1 11.0508364855 9.37291778401 0.892288559983
215 1 10.646383082 13.3006026029 2.03027228673
216 1 14.8246730347 9.79028186995 0.239815425271
217 1 9.8335255448 7.80512896009 3.95451429174
218 1 11.1101666887 12.773457732 5.35829206747
219 1 8.98326674871 10.0537229861 6.95558365217
220 1 12.5342039522 7.62472269172 1.74449721544
221 1 10.3479876226 14.8137265688 1.25897436969
222 1 14.1415771108 7.47959525235 2.34401348657
223 1 8.75982483196 11.0728378064 7.51996752733
224 1 12.3208348707 13.807593464 -0.814903854411
225 1 18.3384364938 10.8024685417 5.18628208192
226 1 18.2112572592 8.21734364861 -0.0727393639898
227 1 17.831436726 13.2754551383 4.70345527435
228 1 16.0749516248 12.5342141445 4.10071581997
229 1 19.4337490649 10.2750789396 2.76905230292
230 1 21.1195552107 12.388264917 5.94716409498
231 1 15.7415342491 12.0177170644 -0.3342468929
232 1 18.8078776428 7.12033412969 6.04805140941
233 1 19.0860909218 12.1069414716 1.36227518791
234 1 23.0962136486 14.1074068841 6.59219495328
235 1 16.0194756485 7.34913240253 4.27364448505
236 1 21.1802179962 10.8493395177 -0.0184196080101
237 1 20.5273967567 14.8251970573 7.32267009432
238 1 16.4534934194 12.5030364245 1.10531606581
239 1 20.611571815 10.9779670567 5.23229645645
240 1 18.9550718083 13.4980538553 5.0756798891
241 1 20.9943895606 10.11176602 2.32811691703
242 1 17.493747602 7.68664948563 6.0334414283
243 1 17.2041013187 13.8682829676 1.33522794956
244 1 16.9363099073 8.00642386143 5.15037953393
245 1 22.2820388124 12.6626173472 6.59503537589
246 1 18.160250852 8.33550672741 1.058020428
247 1 16.0926503675 11.7397445364 2.32704420156
248 1 21.8269699929 10.102056209 1.60985927408
249 1 16.9007908061 9.47952391725 4.87124507136
250 1 19.2629795312 13.5762247238 6.60287390716
251 1 15.2276684171 9.7804799939 7.13156922456
252 1 19.1161648403 9.69973539632 1.22619972058
253 1 18.2175645121 14.3042310099 0.899934850214
254 1 21.8477017888 7.9455041065 3.39047865819
255 1 16.8451504067 11.4286718641 7.94848541447
256 1 18.717829506 14.1710006009 -0.924235363686
257 1 25.0411899976 10.9749490774 5.31128881711
258 1 26.3778108329 8.12716164138 -0.629432822938
259 1 28.0340984209 11.5169977376 4.65866780874
260 1 23.7470646574 14.3261733476 2.01576453141
261 1 27.549947059 11.3338832105 3.39156478108
262 1 28.9979252803 12.0150556726 7.13871011752
263 1 22.2514259768 11.8683422285 -0.877810626934
264 1 25.021159525 8.29791674399 6.78679864899
265 1 24.7965377636 11.4557943369 3.81247025175
266 1 28.7525365968 14.0586096178 4.57590763131
267 1 24.6067625915 8.40807352845 3.55822947853
268 1 29.1601075571 11.4827267621 0.37546601299
269 1 26.178249509 13.8438516022 7.17654198822
270 1 23.6408350872 12.922897529 0.143880208255
271 1 27.7025615379 12.9620986026 4.89127311727
272 1 28.7403395371 15.1888031219 5.17888661573
273 1 27.3874116672 10.0825518965 2.1559738724
274 1 25.8606081669 9.49925729346 6.63630072693
275 1 24.3299709955 14.1087842435 0.656552525536
276 1 25.4066736627 9.514353197 4.51182061399
277 1 29.9719988683 13.1640276871 7.3384866945
278 1 25.7966434128 7.84649111482 2.18780235656
279 1 23.6385895212 10.9013066123 2.35279935335
280 1 28.779679903 10.3314746326 1.07908777835
281 1 23.7051047641 7.8193684506 6.66624370007
282 1 26.4507462579 13.2252624086 6.02639808341
283 1 24.4867913776 12.1575681576 5.84434048792
284 1 29.0145575456 8.89278759222 0.24132811001
285 1 25.88676724 14.6532848891 0.305533973576
286 1 28.6924485471 8.47900386618 3.56907003184
287 1 22.7015286152 8.88898052615 7.26891327999
288 1 25.9821601409 13.7626090388 -0.71746045546
289 1 33.9498331056 10.5112354405 5.6703169924
290 1 36.7071661117 7.15596203653 0.419090511845
291 1 33.7576999079 12.5467279237 3.50603861979
292 1 30.0305827375 13.4686934801 3.83462567728
293 1 33.0707603693 10.4046268879 2.01171119604
294 1 37.8720481854 11.5695419458 7.38901737365
295 1 30.0436970167 12.370286218 0.0133469816316
296 1 33.5824012057 8.07040809552 5.20982191042
297 1 32.5914383337 11.220496904 3.2229574613
298 1 39.8942916589 13.9994481622 3.17851003687
299 1 30.3669833543 8.8656180464 4.09739434924
300 1 37.5317352906 12.0545802051 0.633752068657
301 1 35.0606458584 14.2167580853 7.54474059502
302 1 30.5093397283 13.2715154787 1.66367236053
303 1 34.6635479178 11.2295873097 6.15653917709
304 1 36.7383608028 15.0809001337 5.42816622474
305 1 36.0321067023 10.0951363762 0.879176968052
306 1 33.0438384039 9.47149648361 6.26566033877
307 1 30.851081135 14.6714421611 1.59892112686
308 1 30.8471423959 10.3308270149 3.63523062555
309 1 36.3241175734 12.1687490561 5.17759981299
310 1 36.1847896329 8.22209308528 1.32840049712
311 1 31.3674819447 11.4820786402 4.35433221022
312 1 36.0727962629 11.76070323 0.832008898883
313 1 30.9045483933 8.85529851431 5.32366064562
314 1 33.7224193312 13.7783082056 4.58069047914
315 1 31.7955097771 9.06359139874 6.31576214363
316 1 35.8119904494 9.0311157106 3.03554141724
317 1 30.367421346 15.6397881255 -0.0688821177561
318 1 39.6600607326 9.24939430483 0.877906367246
319 1 31.0985109359 9.45624999878 7.91928909724
320 1 33.8415031673 14.8947328844 -0.380271203301
321 1 5.20948214271 17.3737557897 4.17969109311
322 1 3.40611365126 15.8535037238 -0.248315239399
323 1 5.03762671832 19.9138461313 4.12570384913
324 1 -2.73702615116 22.6466324119 2.88029425101
325 1 4.48676738033 17.57159632 3.31965256756
326 1 7.95923350534 19.3527570537 5.20679629862
327 1 0.498551490891 17.4885671471 0.233469815613
328 1 3.48844525526 16.4536198404 5.75359815004
329 1 0.552608617921 19.7621365965 2.91105330548
330 1 6.59543144024 22.1544925499 3.48470126771
331 1 -0.283149776222 16.356538842 3.61246531144
332 1 7.43861589389 18.3857220295 -0.38601675263
333 1 2.76785576753 19.5611247429 4.61036697908
334 1 0.678599920885 19.7330910578 0.928323499162
335 1 6.0375421063 19.05714907 6.16801605714
336 1 6.22091993442 20.849951292 4.63461053929
337 1 6.18339304064 18.9710222304 3.57772558793
338 1 2.00851990958 17.0618180074 6.07878735798
339 1 2.88148839116 20.4825763362 2.09828746872
340 1 1.39248234741 17.1408565911 4.60699281258
341 1 5.76538710795 19.5734200132 7.5961574516
342 1 4.60408065807 15.2387247547 0.279611142759
343 1 1.29544272539 19.7836304076 2.03507234853
344 1 6.09794614322 17.6267912544 0.0952781932439
345 1 0.522141778865 16.8464949422 3.47667405623
346 1 5.20830957022 21.6751052206 5.98406757816
347 1 1.04938346611 16.2789637805 7.20964684357
348 1 5.65336209336 16.4376000043 1.17722088256
349 1 2.7431567827 22.2056286381 1.78952141431
350 1 6.41970369747 16.014229467 4.17246916224
351 1 0.206188390735 18.708824716 7.51573267493
352 1 3.43921224125 21.9536109743 -1.0009913192
353 1 10.7220560755 17.2912668727 4.11338949548
354 1 12.4006333544 14.981082978 -0.365154393987
355 1 12.261538868 19.2896301435 2.45455099847
356 1 7.90490313714 20.7473023834 2.02434657093
357 1 12.8357058606 18.4674112512 4.69003604428
358 1 14.2214771781 18.9832452044 6.93321662527
359 1 7.6415862891 19.8466031608 -0.404038908909
360 1 10.6373990664 15.5709523159 7.10202018823
361 1 9.7891065243 18.9773640774 5.89301549234
362 1 14.7352645326 20.2195665099 3.4917647619
363 1 8.96990538498 15.7032952441 3.82221034837
364 1 14.4669497752 17.9167703498 -1.50926429511
365 1 11.6521310031 21.2027982359 6.71908864845
366 1 9.69777975479 18.9574680975 0.3451494513
367 1 12.0508133683 19.8883903469 5.26775344305
368 1 13.1086150979 21.8202351952 4.61855006189
369 1 12.9216515174 18.0940991842 3.05228643214
370 1 9.02233789167 15.2520809311 5.47469651982
371 1 8.86194928319 21.7094543927 0.855559882302
372 1 9.99098896988 17.5708623621 5.35684137798
373 1 14.2027155969 20.3222471873 6.50045380068
374 1 11.4367540774 15.4852036986 0.568757062205
375 1 10.5213869689 19.2172863723 2.16569640142
376 1 14.164909913 16.8412231176 -0.165165293217
377 1 7.58688694956 16.0198682927 3.10218458144
378 1 12.8267043567 20.8890558073 6.10967812542
379 1 9.30991936434 16.240270936 6.37142317618
380 1 14.1248130476 17.1053894752 2.44471838782
381 1 8.69318856299 22.8767265892 1.23654685231
382 1 13.8804763816 15.8252339989 2.95073056435
383 1 8.29498623776 16.6407987726 7.25701462402
384 1 11.3121697025 21.8895561309 -0.352386740037
385 1 18.316676987 18.6847316198 4.83584440906
386 1 18.0926970943 15.1781866088 -1.60131724558
387 1 19.4122588903 19.7580881609 4.19061988098
388 1 15.4418940502 22.3214424171 2.59008120207
389 1 20.2028685859 18.4439894176 2.3629158503
390 1 21.4892347047 20.6582486309 7.68537300858
391 1 16.4612188593 21.154306559 0.550151495376
392 1 17.8714340437 16.2157772917 7.23802071451
393 1 18.6579435115 20.5353380884 3.14549398116
394 1 20.8248874063 22.9989329751 3.82027486605
395 1 14.8890892509 15.5630550753 5.42872561674
396 1 20.5862460814 18.2831036932 -0.272435507695
397 1 19.2114318363 22.322824609 7.05541973929
398 1 15.3510318794 17.9724305495 1.40693559395
399 1 19.7869348409 20.2685631069 5.63325521647
400 1 21.0574931626 22.5258366528 5.20669784995
401 1 19.3522023891 17.0892686433 2.48034214525
402 1 17.9693723797 15.4134698725 6.2153751908
403 1 15.3893005679 20.8495144401 2.56265146488
404 1 16.6936222897 18.0643262375 4.93643826053
405 1 22.1891440877 19.7069378498 6.92275198785
406 1 19.2351045397 16.466378982 0.870804475628
407 1 18.2439446217 20.2217343889 1.80273981681
408 1 22.5077992819 18.0506875265 -0.277703320756
409 1 15.877914737 16.0071219221 6.15937190478
410 1 20.2005934029 21.6984645965 5.90067179702
411 1 16.341883772 17.6295041079 6.22390340644
412 1 22.4549618617 16.2094940184 3.17609947584
413 1 17.7308908048 20.9701201846 0.810333785792
414 1 22.520883521 15.4140899738 2.23826302925
415 1 15.5133489409 18.3720413752 7.32729414181
416 1 18.6075654303 21.862199546 -0.224310770843
417 1 25.7344032256 17.3698099687 3.60184422137
418 1 27.937236903 15.8517938656 0.27858173546
419 1 25.4054425963 19.7250602109 4.93149794984
420 1 22.791436015 21.7737124439 2.08399186539
421 1 26.76956145 17.5801130695 2.64482075565
422 1 28.5020756415 18.9454277774 7.31994855558
423 1 23.3298249756 18.3231099195 0.0331973855366
424 1 25.5411286911 16.456751015 6.89116616618
425 1 24.747461704 20.7257209898 3.88111990121
426 1 30.2553712121 21.1680107662 5.8722006596
427 1 22.8693038135 16.271593572 4.74583530234
428 1 29.3890719955 17.8399192899 0.641566925604
429 1 27.4766390694 21.6930021305 7.54284520135
430 1 23.4101767985 20.3765116801 0.234018374958
431 1 26.8816013341 20.114213379 5.40218333555
432 1 28.8431245012 21.8529457351 5.06605142026
433 1 27.8491952534 16.6084896909 2.51925260685
434 1 26.0664945515 17.0054330071 5.83172168192
435 1 23.949691956 21.1606872758 1.71381352792
436 1 25.361227601 17.8238798234 4.73840336734
437 1 30.418119615 20.1085592347 5.30732728367
438 1 26.5719152784 15.8823975869 0.746839276829
439 1 25.1536656262 20.7716278532 2.60274257581
440 1 29.2043148698 16.7254837827 0.0506983226612
441 1 23.1774038934 14.7254138234 5.22260638705
442 1 27.0960746697 20.1072268393 7.13995048505
443 1 23.7925406935 17.7511069393 5.07656965184
444 1 29.2087961277 16.4081478385 2.32249182476
445 1 26.2574896722 21.1251608161 1.9169498259
446 1 30.5136021968 15.4434122819 2.76298197284
447 1 23.0778282549 18.6966370303 7.65853560013
448 1 25.5957527128 22.6951228537 -0.325014383609
449 1 33.3268961213 17.6718254905 4.20673570659
450 1 35.111514781 16.3601334387 0.026845389566
451 1 34.5404221225 18.4639644162 4.31908647336
452 1 30.2873575645 20.574003636 1.46653007484
453 1 35.9540467777 18.1934692756 3.2929664189
454 1 37.5177604881 18.9799053076 6.85974811997
455 1 31.6187247077 19.7841888097 -1.31178070719
456 1 32.5774502834 15.2031574192 7.2870809468
457 1 32.509082778 19.1962720031 3.10913645764
458 1 38.1675111033 21.6839862078 3.32997418182
459 1 30.2639836089 15.8762088995 5.5751897749
460 1 38.0169601171 19.5174605668 0.111410141399
461 1 33.5292602629 22.5692686194 6.98619388472
462 1 28.8808624102 19.9158780175 2.03786018263
463 1 35.0841182978 19.533644811 5.42330289536
464 1 36.7396398662 22.4348875741 4.22895743499
465 1 35.7367923325 17.6798623065 2.21102498783
466 1 33.1951649893 16.1843439804 6.23185218946
467 1 32.475977465 23.4621091557 2.35697983046
468 1 32.3861300325 17.0121878168 5.21790346236
469 1 35.9083485161 19.6682374601 6.50536054601
470 1 34.9413915029 16.7380863208 1.14064537834
471 1 32.7595088648 18.9766042493 1.47992389067
472 1 37.1268062182 18.0872623821 1.29141984454
473 1 30.8529432573 15.6759280618 4.18216913468
474 1 34.2849645569 20.698188453 5.47137965232
475 1 30.3790024182 17.4513013249 5.90724047533
476 1 36.4372439612 14.9774333223 2.82260164989
477 1 32.3093855501 22.5280337112 0.918092921398
478 1 36.9943782766 15.8959618753 3.8790471097
479 1 29.6646710155 18.825449912 6.55542544413
480 1 33.2644010204 22.4100122164 0.0294260525365
481 1 2.64511157745 26.1680528149 2.24037560048
482 1 3.39355405967 22.9754237665 -0.492729865789
483 1 4.68837740314 25.7334733183 4.78169082186
484 1 -0.265640574069 30.4734425984 4.80832573687
485 1 4.61521219232 25.8498249043 3.57455143807
486 1 5.03195759983 28.1807658909 8.08505318388
487 1 -0.80683305149 26.2825482297 0.834765664663
488 1 3.17695567882 24.9500708036 8.91928485734
489 1 2.60675675886 27.6452487261 1.97136783899
490 1 7.65200576976 29.8400162083 4.28159377464
491 1 0.141871758756 21.118341459 5.03194751054
492 1 6.23111865588 26.1634148756 0.480368981297
493 1 6.70306840677 28.8223057882 7.82270660104
494 1 -0.326662228122 28.2539241274 0.232605406142
495 1 4.35543984049 27.2639273444 5.43740983665
496 1 6.76001623996 28.5705206063 4.14526580712
497 1 6.01868823133 25.2720448336 2.76036164569
498 1 1.35170349175 22.2269809779 5.46423084977
499 1 0.21283492955 29.7870709803 2.33118285328
500 1 0.108330411371 23.9068078 5.34686806551
501 1 5.8303124634 28.0165374211 5.61418557223
502 1 1.82684902634 23.4784707014 0.370006954979
503 1 1.59325149482 25.204980445 3.20001873175
504 1 6.38733452863 25.3965687309 1.64125061325
505 1 -0.116834059241 25.5527300834 3.22449654773
506 1 3.2388730643 28.2127950281 5.12469757972
507 1 0.682568785727 24.9946821 6.3588342787
508 1 7.90779327158 23.641121682 2.32146021292
509 1 2.93316258112 28.1597856006 0.987333228946
510 1 6.90408093979 23.558354865 3.35544997535
511 1 -0.12563194874 25.6969190549 7.58292180896
512 1 2.41140069657 29.384158466 -0.0129179311298
513 1 12.3801528657 24.8998662031 4.14547204328
514 1 11.987210487 22.7031927041 0.642156943292
515 1 10.4337574346 28.9909737239 4.36253374548
516 1 8.45656994576 29.5278882692 2.18970515275
517 1 11.3511726288 24.2753413529 4.70597707065
518 1 13.2997281335 26.5876106053 7.7207716085
519 1 7.56515862606 27.2342347398 -0.0272551681741
520 1 10.8995697688 22.5501908116 6.90999075864
521 1 11.0290049722 26.6241387263 2.92503480217
522 1 13.8932573178 29.3034096173 4.95264773753
523 1 7.83485816546 23.575925886 5.38335999089
524 1 16.4377392012 25.5994426441 0.20987240017
525 1 12.2244520303 29.5098093626 6.17556475571
526 1 9.08519879025 27.349088751 1.02893521415
527 1 12.7469933194 26.5825192005 4.21272467425
528 1 14.8877739544 28.2252535725 5.52337433085
529 1 12.3894080638 24.8921877247 1.06492842805
530 1 9.73294784886 23.3809653859 7.17687375144
531 1 9.38906572633 28.2390287398 2.19940163351
532 1 9.64028782059 25.0701531747 5.25455159079
533 1 12.4157603442 27.3724375232 5.52300014159
534 1 12.6009727255 23.9833068943 0.454472397784
535 1 10.814403123 27.7406236904 2.94720182485
536 1 13.3112405877 26.0221270319 0.734405221114
537 1 8.95593043624 24.7837070376 2.92937562517
538 1 11.9068552203 28.3733047193 5.11698595731
539 1 9.06464319255 24.2928803882 6.20977006343
540 1 12.4389599509 24.36137704 2.88317036346
541 1 11.1494313837 30.6278218174 1.85765336281
542 1 14.9903641922 23.4004626372 3.56457039655
543 1 8.60236211965 25.7371296593 6.97102250686
544 1 10.9782777144 27.7742104532 -1.22967595267
545 1 18.3191618509 25.5377689126 3.97589321043
546 1 19.3027997432 22.9005736321 0.0632266529977
547 1 19.7509969783 25.9928317929 5.92213875579
548 1 13.689066506 30.5377328219 1.81430398875
549 1 19.9025174827 25.1168366614 3.66505049657
550 1 21.6063034734 25.7566317262 7.00434472375
551 1 15.4228671204 26.1339659077 -1.14157487277
552 1 17.8759170261 22.3695913223 6.45741034714
553 1 16.8888417882 27.307348343 2.40058017835
554 1 21.8120762327 29.3262210566 2.94655782623
555 1 14.0508061289 22.768863212 4.92088163356
556 1 21.7391709324 25.1923166159 -0.182400078764
557 1 17.6780891319 30.0872359621 7.05183457507
558 1 15.700892423 28.4955944109 -0.641350570548
559 1 20.0002938461 28.4615810981 5.96842132147
560 1 21.3843134863 27.8944239753 5.66619451386
561 1 20.270626224 24.5523703361 2.17529843554
562 1 17.2912935713 23.6258934195 6.11805978142
563 1 18.1841252461 28.6268327695 2.10828955587
564 1 19.1730521269 25.4692193232 6.87644301189
565 1 22.2589667971 26.6470631835 5.73456712114
566 1 19.0039990539 23.4598872222 1.28287536278
567 1 16.2187988306 26.9989513057 1.25076537333
568 1 21.3121040681 25.2204337025 1.13342039358
569 1 17.1933817973 24.198957716 4.31375225005
570 1 19.1722210773 27.7736349488 7.15389589603
571 1 15.6458418313 24.0602119139 6.67695947873
572 1 23.2915153897 24.8859430188 1.87772916613
573 1 17.3615122492 29.4838887378 0.990276303506
574 1 21.3496849789 21.7930209174 2.28564470647
575 1 16.0435736238 26.8828948353 6.03967818281
576 1 17.1423305184 29.1883094769 -0.470201526543
577 1 26.7878757478 25.4509549151 4.76580673697
578 1 26.7811565484 22.2266254042 0.824047572628
579 1 27.4988083612 26.168330649 5.63675518492
580 1 22.0560557709 28.9868547412 4.53909249259
581 1 26.5415547424 26.3084048356 3.33185058639
582 1 29.9054446123 27.0361822932 6.72393101402
583 1 22.5259195441 26.5158692638 -1.02045841597
584 1 24.6964155938 22.7829850778 6.10175183029
585 1 24.570642773 25.2907868438 1.49380096535
586 1 30.1412132612 30.4006278187 5.72115379464
587 1 23.5138711397 23.2038038745 5.24495090573
588 1 28.9447290429 25.8454122331 -0.593342017173
589 1 26.7729558537 28.9403498587 6.18238939742
590 1 23.1745011229 28.1704956797 1.1933821529
591 1 28.3458728279 28.8269128589 3.84742566327
592 1 28.2504853292 29.0900297845 5.30059125335
593 1 28.680311718 26.5596501618 3.20078043348
594 1 25.3687214538 23.9900296908 6.61673467908
595 1 21.7891136101 28.1906658906 2.12221200351
596 1 24.6558729985 25.3578918434 6.46450470644
597 1 27.6389241265 26.759182372 6.93571628155
598 1 28.1139174571 22.4369217132 0.931619294505
599 1 25.2483467815 28.8104433584 3.15046796346
600 1 29.1251732311 25.4104337312 2.08173479874
601 1 24.5984007639 25.475405524 5.33991327822
602 1 27.6869652137 28.2850667631 7.33168580831
603 1 22.0756244283 23.347442002 5.82395647973
604 1 28.677513229 23.7630995837 2.40953644635
605 1 24.3463806846 27.918791547 2.11657341155
606 1 29.9121578654 22.6871971033 3.27285213325
607 1 24.2929630339 26.6759303386 7.39628762106
608 1 25.2074168682 30.0393574646 -0.710643393808
609 1 32.7713905276 26.0305092497 5.63193910936
610 1 35.8018772073 22.7529538656 -1.17748653694
611 1 34.6151213867 27.0468556214 3.33942017723
612 1 30.4547609413 29.5505165155 2.31344230272
613 1 35.3174295845 23.8611420715 3.45112450386
614 1 38.6827045349 25.6334244975 7.56306449029
615 1 30.5532996001 26.781455956 -1.69956393629
616 1 32.4917635227 22.4182051576 6.20943593374
617 1 33.6402232353 26.0297275528 1.7988781996
618 1 39.6271055005 30.8600610508 5.85637979151
619 1 31.0991672855 23.511969207 3.02375943821
620 1 38.0906128164 25.2894099088 -0.0970685647415
621 1 33.6320139276 29.0656506096 6.32818624583
622 1 31.5314035284 27.3144364062 0.889711212733
623 1 34.78510739 28.2389183555 4.65371470752