USPEX

400 atoms
1 atom types

-100.0 50.00 xlo xhi
-100.0 50.00 ylo yhi
-100.0 50.00 zlo zhi
0.00 0.00 0.00 xy xz yz

Atoms

1 1 3.218 3.218 4.276
2 1 4.276 0.529 0.529
3 1 4.276 4.276 4.276
4 1 0.529 6.965 3.218
5 1 4.276 3.218 3.218
6 1 6.965 4.276 6.965
7 1 0.529 4.276 0.529
8 1 3.218 0.529 6.965
9 1 3.218 4.276 3.218
10 1 6.965 6.965 4.276
11 1 0.529 0.529 4.276
12 1 6.965 3.218 0.529
13 1 4.276 6.965 6.965
14 1 1.344 5.091 1.344
15 1 5.091 5.091 5.091
16 1 6.150 6.150 5.091
17 1 5.091 2.403 2.403
18 1 2.403 1.344 6.150
19 1 1.344 6.150 2.403
20 1 2.403 2.403 5.091
21 1 6.150 5.091 6.150
22 1 5.091 1.344 1.344
23 1 2.403 5.091 2.403
24 1 6.150 2.403 1.344
25 1 1.344 1.344 5.091
26 1 5.091 6.150 6.150
27 1 1.344 2.403 6.150
28 1 6.150 1.344 2.403
29 1 2.403 6.150 1.344
30 1 6.965 0.529 3.218
31 1 0.529 3.218 6.965
32 1 3.218 6.965 0.529
33 1 10.712 3.218 4.276
34 1 11.771 0.529 0.529
35 1 11.771 4.276 4.276
36 1 8.024 6.965 3.218
37 1 11.771 3.218 3.218
38 1 14.459 4.276 6.965
39 1 8.024 4.276 0.529
40 1 10.712 0.529 6.965
41 1 10.712 4.276 3.218
42 1 14.459 6.965 4.276
43 1 8.024 0.529 4.276
44 1 14.459 3.218 0.529
45 1 11.771 6.965 6.965
46 1 8.838 5.091 1.344
47 1 12.585 5.091 5.091
48 1 13.644 6.150 5.091
49 1 12.585 2.403 2.403
50 1 9.897 1.344 6.150
51 1 8.838 6.150 2.403
52 1 9.897 2.403 5.091
53 1 13.644 5.091 6.150
54 1 12.585 1.344 1.344
55 1 9.897 5.091 2.403
56 1 13.644 2.403 1.344
57 1 8.838 1.344 5.091
58 1 12.585 6.150 6.150
59 1 8.838 2.403 6.150
60 1 13.644 1.344 2.403
61 1 9.897 6.150 1.344
62 1 14.459 0.529 3.218
63 1 8.024 3.218 6.965
64 1 10.712 6.965 0.529
65 1 18.206 3.218 4.276
66 1 19.265 0.529 0.529
67 1 19.265 4.276 4.276
68 1 15.518 6.965 3.218
69 1 19.265 3.218 3.218
70 1 21.953 4.276 6.965
71 1 15.518 4.276 0.529
72 1 18.206 0.529 6.965
73 1 18.206 4.276 3.218
74 1 21.953 6.965 4.276
75 1 15.518 0.529 4.276
76 1 21.953 3.218 0.529
77 1 19.265 6.965 6.965
78 1 16.333 5.091 1.344
79 1 20.080 5.091 5.091
80 1 21.138 6.150 5.091
81 1 20.080 2.403 2.403
82 1 17.391 1.344 6.150
83 1 16.333 6.150 2.403
84 1 17.391 2.403 5.091
85 1 21.138 5.091 6.150
86 1 20.080 1.344 1.344
87 1 17.391 5.091 2.403
88 1 21.138 2.403 1.344
89 1 16.333 1.344 5.091
90 1 20.080 6.150 6.150
91 1 16.333 2.403 6.150
92 1 21.138 1.344 2.403
93 1 17.391 6.150 1.344
94 1 21.953 0.529 3.218
95 1 15.518 3.218 6.965
96 1 18.206 6.965 0.529
97 1 25.700 3.218 4.276
98 1 26.759 0.529 0.529
99 1 26.759 4.276 4.276
100 1 23.012 6.965 3.218
101 1 26.759 3.218 3.218
102 1 29.447 4.276 6.965
103 1 23.012 4.276 0.529
104 1 25.700 0.529 6.965
105 1 25.700 4.276 3.218
106 1 29.447 6.965 4.276
107 1 23.012 0.529 4.276
108 1 29.447 3.218 0.529
109 1 26.759 6.965 6.965
110 1 23.827 5.091 1.344
111 1 27.574 5.091 5.091
112 1 28.633 6.150 5.091
113 1 27.574 2.403 2.403
114 1 24.885 1.344 6.150
115 1 23.827 6.150 2.403
116 1 24.885 2.403 5.091
117 1 28.633 5.091 6.150
118 1 27.574 1.344 1.344
119 1 24.885 5.091 2.403
120 1 28.633 2.403 1.344
121 1 23.827 1.344 5.091
122 1 27.574 6.150 6.150
123 1 23.827 2.403 6.150
124 1 28.633 1.344 2.403
125 1 24.885 6.150 1.344
126 1 29.447 0.529 3.218
127 1 23.012 3.218 6.965
128 1 25.700 6.965 0.529
129 1 33.194 3.218 4.276
130 1 34.253 0.529 0.529
131 1 34.253 4.276 4.276
132 1 30.506 6.965 3.218
133 1 34.253 3.218 3.218
134 1 36.942 4.276 6.965
135 1 30.506 4.276 0.529
136 1 33.194 0.529 6.965
137 1 33.194 4.276 3.218
138 1 36.942 6.965 4.276
139 1 30.506 0.529 4.276
140 1 36.942 3.218 0.529
141 1 34.253 6.965 6.965
142 1 31.321 5.091 1.344
143 1 35.068 5.091 5.091
144 1 36.127 6.150 5.091
145 1 35.068 2.403 2.403
146 1 32.380 1.344 6.150
147 1 31.321 6.150 2.403
148 1 32.380 2.403 5.091
149 1 36.127 5.091 6.150
150 1 35.068 1.344 1.344
151 1 32.380 5.091 2.403
152 1 36.127 2.403 1.344
153 1 31.321 1.344 5.091
154 1 35.068 6.150 6.150
155 1 31.321 2.403 6.150
156 1 36.127 1.344 2.403
157 1 32.380 6.150 1.344
158 1 36.942 0.529 3.218
159 1 30.506 3.218 6.965
160 1 33.194 6.965 0.529
161 1 3.218 10.712 4.276
162 1 4.276 8.024 0.529
163 1 4.276 11.771 4.276
164 1 0.529 14.459 3.218
165 1 4.276 10.712 3.218
166 1 6.965 11.771 6.965
167 1 0.529 11.771 0.529
168 1 3.218 8.024 6.965
169 1 3.218 11.771 3.218
170 1 6.965 14.459 4.276
171 1 0.529 8.024 4.276
172 1 6.965 10.712 0.529
173 1 4.276 14.459 6.965
174 1 1.344 12.585 1.344
175 1 5.091 12.585 5.091
176 1 6.150 13.644 5.091
177 1 5.091 9.897 2.403
178 1 2.403 8.838 6.150
179 1 1.344 13.644 2.403
180 1 2.403 9.897 5.091
181 1 6.150 12.585 6.150
182 1 5.091 8.838 1.344
183 1 2.403 12.585 2.403
184 1 6.150 9.897 1.344
185 1 1.344 8.838 5.091
186 1 5.091 13.644 6.150
187 1 1.344 9.897 6.150
188 1 6.150 8.838 2.403
189 1 2.403 13.644 1.344
190 1 6.965 8.024 3.218
191 1 0.529 10.712 6.965
192 1 3.218 14.459 0.529
193 1 10.712 10.712 4.276
194 1 11.771 8.024 0.529
195 1 11.771 11.771 4.276
196 1 8.024 14.459 3.218
197 1 11.771 10.712 3.218
198 1 14.459 11.771 6.965
199 1 8.024 11.771 0.529
200 1 10.712 8.024 6.965
201 1 10.712 11.771 3.218
202 1 14.459 14.459 4.276
203 1 8.024 8.024 4.276
204 1 14.459 10.712 0.529
205 1 11.771 14.459 6.965
206 1 8.838 12.585 1.344
207 1 12.585 12.585 5.091
208 1 13.644 13.644 5.091
209 1 12.585 9.897 2.403
210 1 9.897 8.838 6.150
211 1 8.838 13.644 2.403
212 1 9.897 9.897 5.091
213 1 13.644 12.585 6.150
214 1 12.585 8.838 1.344
215 1 9.897 12.585 2.403
216 1 13.644 9.897 1.344
217 1 8.838 8.838 5.091
218 1 12.585 13.644 6.150
219 1 8.838 9.897 6.150
220 1 13.644 8.838 2.403
221 1 9.897 13.644 1.344
222 1 14.459 8.024 3.218
223 1 8.024 10.712 6.965
224 1 10.712 14.459 0.529
225 1 18.206 10.712 4.276
226 1 19.265 8.024 0.529
227 1 19.265 11.771 4.276
228 1 15.518 14.459 3.218
229 1 19.265 10.712 3.218
230 1 21.953 11.771 6.965
231 1 15.518 11.771 0.529
232 1 18.206 8.024 6.965
233 1 18.206 11.771 3.218
234 1 21.953 14.459 4.276
235 1 15.518 8.024 4.276
236 1 21.953 10.712 0.529
237 1 19.265 14.459 6.965
238 1 16.333 12.585 1.344
239 1 20.080 12.585 5.091
240 1 21.138 13.644 5.091
241 1 20.080 9.897 2.403
242 1 17.391 8.838 6.150
243 1 16.333 13.644 2.403
244 1 17.391 9.897 5.091
245 1 21.138 12.585 6.150
246 1 20.080 8.838 1.344
247 1 17.391 12.585 2.403
248 1 21.138 9.897 1.344
249 1 16.333 8.838 5.091
250 1 20.080 13.644 6.150
251 1 16.333 9.897 6.150
252 1 21.138 8.838 2.403
253 1 17.391 13.644 1.344
254 1 21.953 8.024 3.218
255 1 15.518 10.712 6.965
256 1 18.206 14.459 0.529
257 1 25.700 10.712 4.276
258 1 26.759 8.024 0.529
259 1 26.759 11.771 4.276
260 1 23.012 14.459 3.218
261 1 26.759 10.712 3.218
262 1 29.447 11.771 6.965
263 1 23.012 11.771 0.529
264 1 25.700 8.024 6.965
265 1 25.700 11.771 3.218
266 1 29.447 14.459 4.276
267 1 23.012 8.024 4.276
268 1 29.447 10.712 0.529
269 1 26.759 14.459 6.965
270 1 23.827 12.585 1.344
271 1 27.574 12.585 5.091
272 1 28.633 13.644 5.091
273 1 27.574 9.897 2.403
274 1 24.885 8.838 6.150
275 1 23.827 13.644 2.403
276 1 24.885 9.897 5.091
277 1 28.633 12.585 6.150
278 1 27.574 8.838 1.344
279 1 24.885 12.585 2.403
280 1 28.633 9.897 1.344
281 1 23.827 8.838 5.091
282 1 27.574 13.644 6.150
283 1 23.827 9.897 6.150
284 1 28.633 8.838 2.403
285 1 24.885 13.644 1.344
286 1 29.447 8.024 3.218
287 1 23.012 10.712 6.965
288 1 25.700 14.459 0.529
289 1 33.194 10.712 4.276
290 1 34.253 8.024 0.529
291 1 34.253 11.771 4.276
292 1 30.506 14.459 3.218
293 1 34.253 10.712 3.218
294 1 36.942 11.771 6.965
295 1 30.506 11.771 0.529
296 1 33.194 8.024 6.965
297 1 33.194 11.771 3.218
298 1 36.942 14.459 4.276
299 1 30.506 8.024 4.276
300 1 36.942 10.712 0.529
301 1 34.253 14.459 6.965
302 1 31.321 12.585 1.344
303 1 35.068 12.585 5.091
304 1 36.127 13.644 5.091
305 1 35.068 9.897 2.403
306 1 32.380 8.838 6.150
307 1 31.321 13.644 2.403
308 1 32.380 9.897 5.091
309 1 36.127 12.585 6.150
310 1 35.068 8.838 1.344
311 1 32.380 12.585 2.403
312 1 36.127 9.897 1.344
313 1 31.321 8.838 5.091
314 1 35.068 13.644 6.150
315 1 31.321 9.897 6.150
316 1 36.127 8.838 2.403
317 1 32.380 13.644 1.344
318 1 36.942 8.024 3.218
319 1 30.506 10.712 6.965
320 1 33.194 14.459 0.529
321 1 3.218 18.206 4.276
322 1 4.276 15.518 0.529
323 1 4.276 19.265 4.276
324 1 0.529 21.953 3.218
325 1 4.276 18.206 3.218
326 1 6.965 19.265 6.965
327 1 0.529 19.265 0.529
328 1 3.218 15.518 6.965
329 1 3.218 19.265 3.218
330 1 6.965 21.953 4.276
331 1 0.529 15.518 4.276
332 1 6.965 18.206 0.529
333 1 4.276 21.953 6.965
334 1 1.344 20.080 1.344
335 1 5.091 20.080 5.091
336 1 6.150 21.138 5.091
337 1 5.091 17.391 2.403
338 1 2.403 16.333 6.150
339 1 1.344 21.138 2.403
340 1 2.403 17.391 5.091
341 1 6.150 20.080 6.150
342 1 5.091 16.333 1.344
343 1 2.403 20.080 2.403
344 1 6.150 17.391 1.344
345 1 1.344 16.333 5.091
346 1 5.091 21.138 6.150
347 1 1.344 17.391 6.150
348 1 6.150 16.333 2.403
349 1 2.403 21.138 1.344
350 1 6.965 15.518 3.218
351 1 0.529 18.206 6.965
352 1 3.218 21.953 0.529
353 1 10.712 18.206 4.276
354 1 11.771 15.518 0.529
355 1 11.771 19.265 4.276
356 1 8.024 21.953 3.218
357 1 11.771 18.206 3.218
358 1 14.459 19.265 6.965
359 1 8.024 19.265 0.529
360 1 10.712 15.518 6.965
361 1 10.712 19.265 3.218
362 1 14.459 21.953 4.276
363 1 8.024 15.518 4.276
364 1 14.459 18.206 0.529
365 1 11.771 21.953 6.965
366 1 8.838 20.080 1.344
367 1 12.585 20.080 5.091
368 1 13.644 21.138 5.091
369 1 12.585 17.391 2.403
370 1 9.897 16.333 6.150
371 1 8.838 21.138 2.403
372 1 9.897 17.391 5.091
373 1 13.644 20.080 6.150
374 1 12.585 16.333 1.344
375 1 9.897 20.080 2.403
376 1 13.644 17.391 1.344
377 1 8.838 16.333 5.091
378 1 12.585 21.138 6.150
379 1 8.838 17.391 6.150
380 1 13.644 16.333 2.403
381 1 9.897 21.138 1.344
382 1 14.459 15.518 3.218
383 1 8.024 18.206 6.965
384 1 10.712 21.953 0.529
385 1 18.206 18.206 4.276
386 1 19.265 15.518 0.529
387 1 19.265 19.265 4.276
388 1 15.518 21.953 3.218
389 1 19.265 18.206 3.218
390 1 21.953 19.265 6.965
391 1 15.518 19.265 0.529
392 1 18.206 15.518 6.965
393 1 18.206 19.265 3.218
394 1 21.953 21.953 4.276
395 1 15.518 15.518 4.276
396 1 21.953 18.206 0.529
397 1 19.265 21.953 6.965
398 1 16.333 20.080 1.344
399 1 20.080 20.080 5.091
400 1 21.138 21.138 5.091
401 1 20.080 17.391 2.403
402 1 17.391 16.333 6.150
403 1 16.333 21.138 2.403
404 1 17.391 17.391 5.091
405 1 21.138 20.080 6.150
406 1 20.080 16.333 1.344
407 1 17.391 20.080 2.403
408 1 21.138 17.391 1.344
409 1 16.333 16.333 5.091
410 1 20.080 21.138 6.150
411 1 16.333 17.391 6.150
412 1 21.138 16.333 2.403
413 1 17.391 21.138 1.344
414 1 21.953 15.518 3.218
415 1 15.518 18.206 6.965
416 1 18.206 21.953 0.529
417 1 25.700 18.206 4.276
418 1 26.759 15.518 0.529
419 1 26.759 19.265 4.276
420 1 23.012 21.953 3.218
421 1 26.759 18.206 3.218
422 1 29.447 19.265 6.965
423 1 23.012 19.265 0.529
424 1 25.700 15.518 6.965
425 1 25.700 19.265 3.218
426 1 29.447 21.953 4.276
427 1 23.012 15.518 4.276
428 1 29.447 18.206 0.529
429 1 26.759 21.953 6.965
430 1 23.827 20.080 1.344
431 1 27.574 20.080 5.091
432 1 28.633 21.138 5.091
433 1 27.574 17.391 2.403
434 1 24.885 16.333 6.150
435 1 23.827 21.138 2.403
436 1 24.885 17.391 5.091
437 1 28.633 20.080 6.150
438 1 27.574 16.333 1.344
439 1 24.885 20.080 2.403
440 1 28.633 17.391 1.344
441 1 23.827 16.333 5.091
442 1 27.574 21.138 6.150
443 1 23.827 17.391 6.150
444 1 28.633 16.333 2.403
445 1 24.885 21.138 1.344
446 1 29.447 15.518 3.218
447 1 23.012 18.206 6.965
448 1 25.700 21.953 0.529
449 1 33.194 18.206 4.276
450 1 34.253 15.518 0.529
451 1 34.253 19.265 4.276
452 1 30.506 21.953 3.218
453 1 34.253 18.206 3.218
454 1 36.942 19.265 6.965
455 1 30.506 19.265 0.529
456 1 33.194 15.518 6.965
457 1 33.194 19.265 3.218
458 1 36.942 21.953 4.276
459 1 30.506 15.518 4.276
460 1 36.942 18.206 0.529
461 1 34.253 21.953 6.965
462 1 31.321 20.080 1.344
463 1 35.068 20.080 5.091
464 1 36.127 21.138 5.091
465 1 35.068 17.391 2.403
466 1 32.380 16.333 6.150
467 1 31.321 21.138 2.403
468 1 32.380 17.391 5.091
469 1 36.127 20.080 6.150
470 1 35.068 16.333 1.344
471 1 32.380 20.080 2.403
472 1 36.127 17.391 1.344
473 1 31.321 16.333 5.091
474 1 35.068 21.138 6.150
475 1 31.321 17.391 6.150
476 1 36.127 16.333 2.403
477 1 32.380 21.138 1.344
478 1 36.942 15.518 3.218
479 1 30.506 18.206 6.965
480 1 33.194 21.953 0.529
481 1 3.218 25.700 4.276
482 1 4.276 23.012 0.529
483 1 4.276 26.759 4.276
484 1 0.529 29.447 3.218
485 1 4.276 25.700 3.218
486 1 6.965 26.759 6.965
487 1 0.529 26.759 0.529
488 1 3.218 23.012 6.965
489 1 3.218 26.759 3.218
490 1 6.965 29.447 4.276
491 1 0.529 23.012 4.276
492 1 6.965 25.700 0.529
493 1 4.276 29.447 6.965
494 1 1.344 27.574 1.344
495 1 5.091 27.574 5.091
496 1 6.150 28.633 5.091
497 1 5.091 24.885 2.403
498 1 2.403 23.827 6.150
499 1 1.344 28.633 2.403
500 1 2.403 24.885 5.091
501 1 6.150 27.574 6.150
502 1 5.091 23.827 1.344
503 1 2.403 27.574 2.403
504 1 6.150 24.885 1.344
505 1 1.344 23.827 5.091
506 1 5.091 28.633 6.150
507 1 1.344 24.885 6.150
508 1 6.150 23.827 2.403
509 1 2.403 28.633 1.344
510 1 6.965 23.012 3.218
511 1 0.529 25.700 6.965
512 1 3.218 29.447 0.529
513 1 10.712 25.700 4.276
514 1 11.771 23.012 0.529
515 1 11.771 26.759 4.276
516 1 8.024 29.447 3.218
517 1 11.771 25.700 3.218
518 1 14.459 26.759 6.965
519 1 8.024 26.759 0.529
520 1 10.712 23.012 6.965
521 1 10.712 26.759 3.218
522 1 14.459 29.447 4.276
523 1 8.024 23.012 4.276
524 1 14.459 25.700 0.529
525 1 11.771 29.447 6.965
526 1 8.838 27.574 1.344
527 1 12.585 27.574 5.091
528 1 13.644 28.633 5.091
529 1 12.585 24.885 2.403
530 1 9.897 23.827 6.150
531 1 8.838 28.633 2.403
532 1 9.897 24.885 5.091
533 1 13.644 27.574 6.150
534 1 12.585 23.827 1.344
535 1 9.897 27.574 2.403
536 1 13.644 24.885 1.344
537 1 8.838 23.827 5.091
538 1 12.585 28.633 6.150
539 1 8.838 24.885 6.150
540 1 13.644 23.827 2.403
541 1 9.897 28.633 1.344
542 1 14.459 23.012 3.218
543 1 8.024 25.700 6.965
544 1 10.712 29.447 0.529
545 1 18.206 25.700 4.276
546 1 19.265 23.012 0.529
547 1 19.265 26.759 4.276
548 1 15.518 29.447 3.218
549 1 19.265 25.700 3.218
550 1 21.953 26.759 6.965
551 1 15.518 26.759 0.529
552 1 18.206 23.012 6.965
553 1 18.206 26.759 3.218
554 1 21.953 29.447 4.276
555 1 15.518 23.012 4.276
556 1 21.953 25.700 0.529
557 1 19.265 29.447 6.965
558 1 16.333 27.574 1.344
559 1 20.080 27.574 5.091
560 1 21.138 28.633 5.091
561 1 20.080 24.885 2.403
562 1 17.391 23.827 6.150
563 1 16.333 28.633 2.403
564 1 17.391 24.885 5.091
565 1 21.138 27.574 6.150
566 1 20.080 23.827 1.344
567 1 17.391 27.574 2.403
568 1 21.138 24.885 1.344
569 1 16.333 23.827 5.091
570 1 20.080 28.633 6.150
571 1 16.333 24.885 6.150
572 1 21.138 23.827 2.403
573 1 17.391 28.633 1.344
574 1 21.953 23.012 3.218
575 1 15.518 25.700 6.965
576 1 18.206 29.447 0.529
577 1 25.700 25.700 4.276
578 1 26.759 23.012 0.529
579 1 26.759 26.759 4.276
580 1 23.012 29.447 3.218
581 1 26.759 25.700 3.218
582 1 29.447 26.759 6.965
583 1 23.012 26.759 0.529
584 1 25.700 23.012 6.965
585 1 25.700 26.759 3.218
586 1 29.447 29.447 4.276
587 1 23.012 23.012 4.276
588 1 29.447 25.700 0.529
589 1 26.759 29.447 6.965
590 1 23.827 27.574 1.344
591 1 27.574 27.574 5.091
592 1 28.633 28.633 5.091
593 1 27.574 24.885 2.403
594 1 24.885 23.827 6.150
595 1 23.827 28.633 2.403
596 1 24.885 24.885 5.091
597 1 28.633 27.574 6.150
598 1 27.574 23.827 1.344
599 1 24.885 27.574 2.403
600 1 28.633 24.885 1.344
601 1 23.827 23.827 5.091
602 1 27.574 28.633 6.150
603 1 23.827 24.885 6.150
604 1 28.633 23.827 2.403
605 1 24.885 28.633 1.344
606 1 29.447 23.012 3.218
607 1 23.012 25.700 6.965
608 1 25.700 29.447 0.529
609 1 33.194 25.700 4.276
610 1 34.253 23.012 0.529
611 1 34.253 26.759 4.276
612 1 30.506 29.447 3.218
613 1 34.253 25.700 3.218
614 1 36.942 26.759 6.965
615 1 30.506 26.759 0.529
616 1 33.194 23.012 6.965
617 1 33.194 26.759 3.218
618 1 36.942 29.447 4.276
619 1 30.506 23.012 4.276
620 1 36.942 25.700 0.529
621 1 34.253 29.447 6.965
622 1 31.321 27.574 1.344
623 1 35.068 27.574 5.091
624 1 36.127 28.633 5.091
625 1 35.068 24.885 2.403
626 1 32.380 23.827 6.150
627 1 31.321 28.633 2.403
628 1 32.380 24.885 5.091
629 1 36.127 27.574 6.150
630 1 35.068 23.827 1.344
631 1 32.380 27.574 2.403
632 1 36.127 24.885 1.344
633 1 31.321 23.827 5.091
634 1 35.068 28.633 6.150
635 1 31.321 24.885 6.150
636 1 36.127 23.827 2.403
637 1 32.380 28.633 1.344
638 1 36.942 23.012 3.218
639 1 30.506 25.700 6.965
640 1 33.194 29.447 0.529
641 1 3.218 33.194 4.276
642 1 4.276 30.506 0.529
643 1 4.276 34.253 4.276
644 1 0.529 36.942 3.218
645 1 4.276 33.194 3.218
646 1 6.965 34.253 6.965
647 1 0.529 34.253 0.529
648 1 3.218 30.506 6.965
649 1 3.218 34.253 3.218
650 1 6.965 36.942 4.276
651 1 0.529 30.506 4.276
652 1 6.965 33.194 0.529
653 1 4.276 36.942 6.965
654 1 1.344 35.068 1.344
655 1 5.091 35.068 5.091
656 1 6.150 36.127 5.091
657 1 5.091 32.380 2.403
658 1 2.403 31.321 6.150
659 1 1.344 36.127 2.403
660 1 2.403 32.380 5.091
661 1 6.150 35.068 6.150
662 1 5.091 31.321 1.344
663 1 2.403 35.068 2.403
664 1 6.150 32.380 1.344
665 1 1.344 31.321 5.091
666 1 5.091 36.127 6.150
667 1 1.344 32.380 6.150
668 1 6.150 31.321 2.403
669 1 2.403 36.127 1.344
670 1 6.965 30.506 3.218
671 1 0.529 33.194 6.965
672 1 3.218 36.942 0.529
673 1 10.712 33.194 4.276
674 1 11.771 30.506 0.529
675 1 11.771 34.253 4.276
676 1 8.024 36.942 3.218
677 1 11.771 33.194 3.218
678 1 14.459 34.253 6.965
679 1 8.024 34.253 0.529
680 1 10.712 30.506 6.965
681 1 10.712 34.253 3.218
682 1 14.459 36.942 4.276
683 1 8.024 30.506 4.276
684 1 14.459 33.194 0.529
685 1 11.771 36.942 6.965
686 1 8.838 35.068 1.344
687 1 12.585 35.068 5.091
688 1 13.644 36.127 5.091
689 1 12.585 32.380 2.403
690 1 9.897 31.321 6.150
691 1 8.838 36.127 2.403
692 1 9.897 32.380 5.091
693 1 13.644 35.068 6.150
694 1 12.585 31.321 1.344
695 1 9.897 35.068 2.403
696 1 13.644 32.380 1.344
697 1 8.838 31.321 5.091
698 1 12.585 36.127 6.150
699 1 8.838 32.380 6.150
700 1 13.644 31.321 2.403
701 1 9.897 36.127 1.344
702 1 14.459 30.506 3.218
703 1 8.024 33.194 6.965
704 1 10.712 36.942 0.529
705 1 18.206 33.194 4.276
706 1 19.265 30.506 0.529
707 1 19.265 34.253 4.276
708 1 15.518 36.942 3.218
709 1 19.265 33.194 3.218
710 1 21.953 34.253 6.965
711 1 15.518 34.253 0.529
712 1 18.206 30.506 6.965
713 1 18.206 34.253 3.218
714 1 21.953 36.942 4.276
715 1 15.518 30.506 4.276
716 1 21.953 33.194 0.529
717 1 19.265 36.942 6.965
718 1 16.333 35.068 1.344
719 1 20.080 35.068 5.091
720 1 21.138 36.127 5.091
721 1 20.080 32.380 2.403
722 1 17.391 31.321 6.150
723 1 16.333 36.127 2.403
724 1 17.391 32.380 5.091
725 1 21.138 35.068 6.150
726 1 20.080 31.321 1.344
727 1 17.391 35.068 2.403
728 1 21.138 32.380 1.344
729 1 16.333 31.321 5.091
730 1 20.080 36.127 6.150
731 1 16.333 32.380 6.150
732 1 21.138 31.321 2.403
733 1 17.391 36.127 1.344
734 1 21.953 30.506 3.218
735 1 15.518 33.194 6.965
736 1 18.206 36.942 0.529
737 1 25.700 33.194 4.276
738 1 26.759 30.506 0.529
739 1 26.759 34.253 4.276
740 1 23.012 36.942 3.218
741 1 26.759 33.194 3.218
742 1 29.447 34.253 6.965
743 1 23.012 34.253 0.529
744 1 25.700 30.506 6.965
745 1 25.700 34.253 3.218
746 1 29.447 36.942 4.276
747 1 23.012 30.506 4.276
748 1 29.447 33.194 0.529
749 1 26.759 36.942 6.965
750 1 23.827 35.068 1.344
751 1 27.574 35.068 5.091
752 1 28.633 36.127 5.091
753 1 27.574 32.380 2.403
754 1 24.885 31.321 6.150
755 1 23.827 36.127 2.403
756 1 24.885 32.380 5.091
757 1 28.633 35.068 6.150
758 1 27.574 31.321 1.344
759 1 24.885 35.068 2.403
760 1 28.633 32.380 1.344
761 1 23.827 31.321 5.091
762 1 27.574 36.127 6.150
763 1 23.827 32.380 6.150
764 1 28.633 31.321 2.403
765 1 24.885 36.127 1.344
766 1 29.447 30.506 3.218
767 1 23.012 33.194 6.965
768 1 25.700 36.942 0.529
769 1 33.194 33.194 4.276
770 1 34.253 30.506 0.529
771 1 34.253 34.253 4.276
772 1 30.506 36.942 3.218
773 1 34.253 33.194 3.218
774 1 36.942 34.253 6.965
775 1 30.506 34.253 0.529
776 1 33.194 30.506 6.965
777 1 33.194 34.253 3.218
778 1 36.942 36.942 4.276
779 1 30.506 30.506 4.276
780 1 36.942 33.194 0.529
781 1 34.253 36.942 6.965
782 1 31.321 35.068 1.344
783 1 35.068 35.068 5.091
784 1 36.127 36.127 5.091
785 1 35.068 32.380 2.403
786 1 32.380 31.321 6.150
787 1 31.321 36.127 2.403
788 1 32.380 32.380 5.091
789 1 36.127 35.068 6.150
790 1 35.068 31.321 1.344
791 1 32.380 35.068 2.403
792 1 36.127 32.380 1.344
793 1 31.321 31.321 5.091
794 1 35.068 36.127 6.150
795 1 31.321 32.380 6.150
796 1 36.127 31.321 2.403
797 1 32.380 36.127 1.344
798 1 36.942 30.506 3.218
799 1 30.506 33.194 6.965
800 1 33.194 36.942 0.529
801 1 3.218 3.218 11.771
802 1 4.276 0.529 8.024
803 1 4.276 4.276 11.771
804 1 0.529 6.965 10.712
805 1 4.276 3.218 10.712
806 1 6.965 4.276 14.459
807 1 0.529 4.276 8.024
808 1 3.218 0.529 14.459
809 1 3.218 4.276 10.712
810 1 6.965 6.965 11.771
811 1 0.529 0.529 11.771
812 1 6.965 3.218 8.024
813 1 4.276 6.965 14.459
814 1 1.344 5.091 8.838
815 1 5.091 5.091 12.585
816 1 6.150 6.150 12.585
817 1 5.091 2.403 9.897
818 1 2.403 1.344 13.644
819 1 1.344 6.150 9.897
820 1 2.403 2.403 12.585
821 1 6.150 5.091 13.644
822 1 5.091 1.344 8.838
823 1 2.403 5.091 9.897
824 1 6.150 2.403 8.838
825 1 1.344 1.344 12.585
826 1 5.091 6.150 13.644
827 1 1.344 2.403 13.644
828 1 6.150 1.344 9.897
829 1 2.403 6.150 8.838
830 1 6.965 0.529 10.712
831 1 0.529 3.218 14.459
832 1 3.218 6.965 8.024
833 1 10.712 3.218 11.771
834 1 11.771 0.529 8.024
835 1 11.771 4.276 11.771
836 1 8.024 6.965 10.712
837 1 11.771 3.218 10.712
838 1 14.459 4.276 14.459
839 1 8.024 4.276 8.024
840 1 10.712 0.529 14.459
841 1 10.712 4.276 10.712
842 1 14.459 6.965 11.771
843 1 8.024 0.529 11.771
844 1 14.459 3.218 8.024
845 1 11.771 6.965 14.459
846 1 8.838 5.091 8.838
847 1 12.585 5.091 12.585
848 1 13.644 6.150 12.585
849 1 12.585 2.403 9.897
850 1 9.897 1.344 13.644
851 1 8.838 6.150 9.897
852 1 9.897 2.403 12.585
853 1 13.644 5.091 13.644
854 1 12.585 1.344 8.838
855 1 9.897 5.091 9.897
856 1 13.644 2.403 8.838
857 1 8.838 1.344 12.585
858 1 12.585 6.150 13.644
859 1 8.838 2.403 13.644
860 1 13.644 1.344 9.897
861 1 9.897 6.150 8.838
862 1 14.459 0.529 10.712
863 1 8.024 3.218 14.459
864 1 10.712 6.965 8.024
865 1 18.206 3.218 11.771
866 1 19.265 0.529 8.024
867 1 19.265 4.276 11.771
868 1 15.518 6.965 10.712
869 1 19.265 3.218 10.712
870 1 21.953 4.276 14.459
871 1 15.518 4.276 8.024
872 1 18.206 0.529 14.459
873 1 18.206 4.276 10.712
874 1 21.953 6.965 11.771
875 1 15.518 0.529 11.771
876 1 21.953 3.218 8.024
877 1 19.265 6.965 14.459
878 1 16.333 5.091 8.838
879 1 20.080 5.091 12.585
880 1 21.138 6.150 12.585
881 1 20.080 2.403 9.897
882 1 17.391 1.344 13.644
883 1 16.333 6.150 9.897
884 1 17.391 2.403 12.585
885 1 21.138 5.091 13.644
886 1 20.080 1.344 8.838
887 1 17.391 5.091 9.897
888 1 21.138 2.403 8.838
889 1 16.333 1.344 12.585
890 1 20.080 6.150 13.644
891 1 16.333 2.403 13.644
892 1 21.138 1.344 9.897
893 1 17.391 6.150 8.838
894 1 21.953 0.529 10.712
895 1 15.518 3.218 14.459
896 1 18.206 6.965 8.024
897 1 25.700 3.218 11.771
898 1 26.759 0.529 8.024
899 1 26.759 4.276 11.771
900 1 23.012 6.965 10.712
901 1 26.759 3.218 10.712
902 1 29.447 4.276 14.459
903 1 23.012 4.276 8.024
904 1 25.700 0.529 14.459
905 1 25.700 4.276 10.712
906 1 29.447 6.965 11.771
907 1 23.012 0.529 11.771
908 1 29.447 3.218 8.024
909 1 26.759 6.965 14.459
910 1 23.827 5.091 8.838
911 1 27.574 5.091 12.585
912 1 28.633 6.150 12.585
913 1 27.574 2.403 9.897
914 1 24.885 1.344 13.644
915 1 23.827 6.150 9.897
916 1 24.885 2.403 12.585
917 1 28.633 5.091 13.644
918 1 27.574 1.344 8.838
919 1 24.885 5.091 9.897
920 1 28.633 2.403 8.838
921 1 23.827 1.344 12.585
922 1 27.574 6.150 13.644
923 1 23.827 2.403 13.644
924 1 28.633 1.344 9.897
925 1 24.885 6.150 8.838
926 1 29.447 0.529 10.712
927 1 23.012 3.218 14.459
928 1 25.700 6.965 8.024
929 1 33.194 3.218 11.771
930 1 34.253 0.529 8.024
931 1 34.253 4.276 11.771
932 1 30.506 6.965 10.712
933 1 34.253 3.218 10.712
934 1 36.942 4.276 14.459
935 1 30.506 4.276 8.024
936 1 33.194 0.529 14.459
937 1 33.194 4.276 10.712
938 1 36.942 6.965 11.771
939 1 30.506 0.529 11.771
940 1 36.942 3.218 8.024
941 1 34.253 6.965 14.459
942 1 31.321 5.091 8.838
943 1 35.068 5.091 12.585
944 1 36.127 6.150 12.585
945 1 35.068 2.403 9.897
946 1 32.380 1.344 13.644
947 1 31.321 6.150 9.897
948 1 32.380 2.403 12.585
949 1 36.127 5.091 13.644
950 1 35.068 1.344 8.838
951 1 32.380 5.091 9.897
952 1 36.127 2.403 8.838
953 1 31.321 1.344 12.585
954 1 35.068 6.150 13.644
955 1 31.321 2.403 13.644
956 1 36.127 1.344 9.897
957 1 32.380 6.150 8.838
958 1 36.942 0.529 10.712
959 1 30.506 3.218 14.459
960 1 33.194 6.965 8.024
961 1 3.218 10.712 11.771
962 1 4.276 8.024 8.024
963 1 4.276 11.771 11.771
964 1 0.529 14.459 10.712
965 1 4.276 10.712 10.712
966 1 6.965 11.771 14.459
967 1 0.529 11.771 8.024
968 1 3.218 8.024 14.459
969 1 3.218 11.771 10.712
970 1 6.965 14.459 11.771
971 1 0.529 8.024 11.771
972 1 6.965 10.712 8.024
973 1 4.276 14.459 14.459
974 1 1.344 12.585 8.838
975 1 5.091 12.585 12.585
976 1 6.150 13.644 12.585
977 1 5.091 9.897 9.897
978 1 2.403 8.838 13.644
979 1 1.344 13.644 9.897
980 1 2.403 9.897 12.585
981 1 6.150 12.585 13.644
982 1 5.091 8.838 8.838
983 1 2.403 12.585 9.897
984 1 6.150 9.897 8.838
985 1 1.344 8.838 12.585
986 1 5.091 13.644 13.644
987 1 1.344 9.897 13.644
988 1 6.150 8.838 9.897
989 1 2.403 13.644 8.838
990 1 6.965 8.024 10.712
991 1 0.529 10.712 14.459
992 1 3.218 14.459 8.024
993 1 10.712 10.712 11.771
994 1 11.771 8.024 8.024
995 1 11.771 11.771 11.771
996 1 8.024 14.459 10.712
997 1 11.771 10.712 10.712
998 1 14.459 11.771 14.459
999 1 8.024 11.771 8.024
1000 1 10.712 8.024 14.459
1001 1 10.712 11.771 10.712
1002 1 14.459 14.459 11.771
1003 1 8.024 8.024 11.771
1004 1 14.459 10.712 8.024
1005 1 11.771 14.459 14.459
1006 1 8.838 12.585 8.838
1007 1 12.585 12.585 12.585
1008 1 13.644 13.644 12.585
1009 1 12.585 9.897 9.897
1010 1 9.897 8.838 13.644
1011 1 8.838 13.644 9.897
1012 1 9.897 9.897 12.585
1013 1 13.644 12.585 13.644
1014 1 12.585 8.838 8.838
1015 1 9.897 12.585 9.897
1016 1 13.644 9.897 8.838
1017 1 8.838 8.838 12.585
1018 1 12.585 13.644 13.644
1019 1 8.838 9.897 13.644
1020 1 13.644 8.838 9.897
1021 1 9.897 13.644 8.838
1022 1 14.459 8.024 10.712
1023 1 8.024 10.712 14.459
1024 1 10.712 14.459 8.024
1025 1 18.206 10.712 11.771
1026 1 19.265 8.024 8.024
1027 1 19.265 11.771 11.771
1028 1 15.518 14.459 10.712
1029 1 19.265 10.712 10.712
1030 1 21.953 11.771 14.459
1031 1 15.518 11.771 8.024
1032 1 18.206 8.024 14.459
1033 1 18.206 11.771 10.712
1034 1 21.953 14.459 11.771
1035 1 15.518 8.024 11.771
1036 1 21.953 10.712 8.024
1037 1 19.265 14.459 14.459
1038 1 16.333 12.585 8.838
1039 1 20.080 12.585 12.585
1040 1 21.138 13.644 12.585
1041 1 20.080 9.897 9.897
1042 1 17.391 8.838 13.644
1043 1 16.333 13.644 9.897
1044 1 17.391 9.897 12.585
1045 1 21.138 12.585 13.644
1046 1 20.080 8.838 8.838
1047 1 17.391 12.585 9.897
1048 1 21.138 9.897 8.838
1049 1 16.333 8.838 12.585
1050 1 20.080 13.644 13.644
1051 1 16.333 9.897 13.644
1052 1 21.138 8.838 9.897
1053 1 17.391 13.644 8.838
1054 1 21.953 8.024 10.712
1055 1 15.518 10.712 14.459
1056 1 18.206 14.459 8.024
1057 1 25.700 10.712 11.771
1058 1 26.759 8.024 8.024
1059 1 26.759 11.771 11.771
1060 1 23.012 14.459 10.712
1061 1 26.759 10.712 10.712
1062 1 29.447 11.771 14.459
1063 1 23.012 11.771 8.024
1064 1 25.700 8.024 14.459
1065 1 25.700 11.771 10.712
1066 1 29.447 14.459 11.771
1067 1 23.012 8.024 11.771
1068 1 29.447 10.712 8.024
1069 1 26.759 14.459 14.459
1070 1 23.827 12.585 8.838
1071 1 27.574 12.585 12.585
1072 1 28.633 13.644 12.585
1073 1 27.574 9.897 9.897
1074 1 24.885 8.838 13.644
1075 1 23.827 13.644 9.897
1076 1 24.885 9.897 12.585
1077 1 28.633 12.585 13.644
1078 1 27.574 8.838 8.838
1079 1 24.885 12.585 9.897
1080 1 28.633 9.897 8.838
1081 1 23.827 8.838 12.585
1082 1 27.574 13.644 13.644
1083 1 23.827 9.897 13.644
1084 1 28.633 8.838 9.897
1085 1 24.885 13.644 8.838
1086 1 29.447 8.024 10.712
1087 1 23.012 10.712 14.459
1088 1 25.700 14.459 8.024
1089 1 33.194 10.712 11.771
1090 1 34.253 8.024 8.024
1091 1 34.253 11.771 11.771
1092 1 30.506 14.459 10.712
1093 1 34.253 10.712 10.712
1094 1 36.942 11.771 14.459
1095 1 30.506 11.771 8.024
1096 1 33.194 8.024 14.459
1097 1 33.194 11.771 10.712
1098 1 36.942 14.459 11.771
1099 1 30.506 8.024 11.771
1100 1 36.942 10.712 8.024
1101 1 34.253 14.459 14.459
1102 1 31.321 12.585 8.838
1103 1 35.068 12.585 12.585
1104 1 36.127 13.644 12.585
1105 1 35.068 9.897 9.897
1106 1 32.380 8.838 13.644
1107 1 31.321 13.644 9.897
1108 1 32.380 9.897 12.585
1109 1 36.127 12.585 13.644
1110 1 35.068 8.838 8.838
1111 1 32.380 12.585 9.897
1112 1 36.127 9.897 8.838
1113 1 31.321 8.838 12.585
1114 1 35.068 13.644 13.644
1115 1 31.321 9.897 13.644
1116 1 36.127 8.838 9.897
1117 1 32.380 13.644 8.838
1118 1 36.942 8.024 10.712
1119 1 30.506 10.712 14.459
1120 1 33.194 14.459 8.024
1121 1 3.218 18.206 11.771
1122 1 4.276 15.518 8.024
1123 1 4.276 19.265 11.771
1124 1 0.529 21.953 10.712
1125 1 4.276 18.206 10.712
1126 1 6.965 19.265 14.459
1127 1 0.529 19.265 8.024
1128 1 3.218 15.518 14.459
1129 1 3.218 19.265 10.712
1130 1 6.965 21.953 11.771
1131 1 0.529 15.518 11.771
1132 1 6.965 18.206 8.024
1133 1 4.276 21.953 14.459
1134 1 1.344 20.080 8.838
1135 1 5.091 20.080 12.585
1136 1 6.150 21.138 12.585
1137 1 5.091 17.391 9.897
1138 1 2.403 16.333 13.644
1139 1 1.344 21.138 9.897
1140 1 2.403 17.391 12.585
1141 1 6.150 20.080 13.644
1142 1 5.091 16.333 8.838
1143 1 2.403 20.080 9.897
1144 1 6.150 17.391 8.838
1145 1 1.344 16.333 12.585
1146 1 5.091 21.138 13.644
1147 1 1.344 17.391 13.644
1148 1 6.150 16.333 9.897
1149 1 2.403 21.138 8.838
1150 1 6.965 15.518 10.712
1151 1 0.529 18.206 14.459
1152 1 3.218 21.953 8.024
1153 1 10.712 18.206 11.771
1154 1 11.771 15.518 8.024
1155 1 11.771 19.265 11.771
1156 1 8.024 21.953 10.712
1157 1 11.771 18.206 10.712
1158 1 14.459 19.265 14.459
1159 1 8.024 19.265 8.024
1160 1 10.712 15.518 14.459
1161 1 10.712 19.265 10.712
1162 1 14.459 21.953 11.771
1163 1 8.024 15.518 11.771
1164 1 14.459 18.206 8.024
1165 1 11.771 21.953 14.459
1166 1 8.838 20.080 8.838
1167 1 12.585 20.080 12.585