USPEX

14 atoms
1 atom types

0.0 30.00 xlo xhi
0.0 30.00 ylo yhi
0.0 30.00 zlo zhi
0.00 0.00 0.00 xy xz yz

Atoms

1 1 4.41391554215 4.37606832989 6.19785658912
2 1 6.80935053207 8.18468899124 7.02175678585
3 1 3.71175061824 7.86011597003 9.70573520431
4 1 5.27739839433 7.4998632358 8.67728743242
5 1 4.58196795423 5.63571056467 7.64660375196
6 1 6.11740857842 6.75773835352 7.33770877616
7 1 9.38520067006 6.57116970649 4.73338999283
8 1 6.2845892771 5.99095906432 8.79876618052
9 1 8.28122791526 7.98432712199 5.39555406314
10 1 7.11140883209 4.76547425191 10.0211408073
11 1 7.06767594989 9.45063138739 5.5936908058
12 1 8.47731611019 8.63093894963 7.20738754826
13 1 9.65234312113 9.98526307061 7.93564631981
14 1 5.74380191583 10.1015839348 4.37197002507

