USPEX

256 atoms
1 atom types

-50.0 50.00 xlo xhi
-50.0 50.00 ylo yhi
-50.0 50.00 zlo zhi
0.00 0.00 0.00 xy xz yz

Atoms

1 1 4.50000 3.26600 3.22200
2 1 3.14000 0.26100 6.61500
3 1 7.05800 6.90600 4.83200
4 1 0.99200 4.55500 0.31900
5 1 3.43700 4.32100 3.22200
6 1 7.41100 3.50000 0.78800
7 1 4.14600 6.67200 7.26600
8 1 0.69600 0.49500 3.71300
9 1 3.35300 3.17400 4.18000
10 1 0.73900 6.99900 3.22100
11 1 6.84500 3.99400 7.26700
12 1 4.75400 0.82200 0.32100
13 1 4.40000 4.22800 4.36500
14 1 1.62700 6.25800 2.41200
15 1 6.09700 4.87700 6.45800
16 1 5.48900 1.56300 1.27100
17 1 5.13500 4.96900 5.31500
18 1 2.47700 2.29100 4.84700
19 1 2.69000 5.20300 2.41300
20 1 1.43000 1.23600 4.66300
21 1 5.03500 5.93100 6.45800
22 1 6.53500 2.61700 1.45500
23 1 1.72700 5.29600 1.27000
24 1 5.38900 2.52500 2.41400
25 1 2.39300 1.14400 5.80600
26 1 6.18100 6.02400 5.49900
27 1 6.45100 1.47000 2.41400
28 1 2.77400 6.35000 1.45400
29 1 1.33000 2.19900 5.80600
30 1 0.44200 2.93900 6.61400
31 1 3.65000 7.23300 0.78700
32 1 7.19800 0.58800 3.22300
33 1 11.96600 3.26600 3.87500
34 1 10.60600 0.26100 7.26800
35 1 14.52300 6.90600 5.48500
36 1 8.45800 4.55500 0.97200
37 1 10.90300 4.32100 3.87500
38 1 14.87700 3.50000 1.44100
39 1 11.61200 6.67200 7.91900
40 1 8.16100 0.49500 4.36600
41 1 10.81900 3.17400 4.83300
42 1 8.20400 6.99900 3.87400
43 1 14.31000 3.99400 7.92000
44 1 12.21900 0.82200 0.97400
45 1 11.86600 4.22800 5.01800
46 1 9.09300 6.25800 3.06500
47 1 13.56300 4.87700 7.11100
48 1 12.95400 1.56300 1.92400
49 1 12.60000 4.96900 5.96800
50 1 9.94300 2.29100 5.50000
51 1 10.15600 5.20300 3.06600
52 1 8.89600 1.23600 5.31600
53 1 12.50000 5.93100 7.11100
54 1 14.00100 2.61700 2.10800
55 1 9.19300 5.29600 1.92300
56 1 12.85400 2.52500 3.06700
57 1 9.85900 1.14400 6.45900
58 1 13.64700 6.02400 6.15200
59 1 13.91700 1.47000 3.06700
60 1 10.24000 6.35000 2.10700
61 1 8.79600 2.19900 6.45900
62 1 7.90700 2.93900 7.26700
63 1 11.11600 7.23300 1.44000
64 1 14.66400 0.58800 3.87600
65 1 4.44300 10.73200 3.87300
66 1 3.08300 7.72700 7.26600
67 1 7.00100 14.37200 5.48300
68 1 0.93500 12.02100 0.97000
69 1 3.38000 11.78600 3.87200
70 1 7.35500 10.96600 1.43900
71 1 4.08900 14.13800 7.91700
72 1 0.63900 7.96100 4.36300
73 1 3.29600 10.63900 4.83100
74 1 0.68200 14.46400 3.87100
75 1 6.78800 11.46000 7.91700
76 1 4.69700 8.28800 0.97100
77 1 4.34300 11.69400 5.01500
78 1 1.57000 13.72400 3.06300
79 1 6.04100 12.34200 7.10900
80 1 5.43200 9.02800 1.92200
81 1 5.07800 12.43500 5.96600
82 1 2.42000 9.75700 5.49800
83 1 2.63300 12.66900 3.06300
84 1 1.37300 8.70200 5.31400
85 1 4.97800 13.39700 7.10800
86 1 6.47800 10.08300 2.10600
87 1 1.67000 12.76100 1.92000
88 1 5.33200 9.99100 3.06400
89 1 2.33600 8.61000 6.45700
90 1 6.12400 13.48900 6.15000
91 1 6.39400 8.93600 3.06500
92 1 2.71700 13.81600 2.10500
93 1 1.27300 9.66400 6.45600
94 1 0.38500 10.40500 7.26500
95 1 3.59300 14.69900 1.43800
96 1 7.14200 8.05300 3.87400
97 1 11.90900 10.73200 4.52600
98 1 10.54900 7.72700 7.91900
99 1 14.46600 14.37200 6.13600
100 1 8.40100 12.02100 1.62300
101 1 10.84600 11.78600 4.52500
102 1 14.82000 10.96600 2.09200
103 1 11.55500 14.13800 8.57000
104 1 8.10400 7.96100 5.01600
105 1 10.76200 10.63900 5.48400
106 1 8.14700 14.46400 4.52500
107 1 14.25300 11.46000 8.57100
108 1 12.16200 8.28800 1.62400
109 1 11.80900 11.69400 5.66800
110 1 9.03600 13.72400 3.71600
111 1 13.50600 12.34200 7.76200
112 1 12.89700 9.02800 2.57500
113 1 12.54300 12.43500 6.61900
114 1 9.88600 9.75700 6.15100
115 1 10.09900 12.66900 3.71600
116 1 8.83900 8.70200 5.96700
117 1 12.44300 13.39700 7.76100
118 1 13.94400 10.08300 2.75900
119 1 9.13600 12.76100 2.57400
120 1 12.79700 9.99100 3.71700
121 1 9.80200 8.61000 7.11000
122 1 13.59000 13.48900 6.80300
123 1 13.86000 8.93600 3.71800
124 1 10.18300 13.81600 2.75800
125 1 8.73900 9.66400 7.10900
126 1 7.85000 10.40500 7.91800
127 1 11.05900 14.69900 2.09100
128 1 14.60700 8.05300 4.52700
129 1 3.84900 2.61300 10.65900
130 1 2.49000 -0.39200 14.05200
131 1 6.40700 6.25300 12.27000
132 1 0.34200 3.90200 7.75700
133 1 2.78600 3.66700 10.65900
134 1 6.76100 2.84700 8.22600
135 1 3.49500 6.01900 14.70300
136 1 0.04500 -0.15800 11.15000
137 1 2.70300 2.52000 11.61800
138 1 0.08800 6.34600 10.65800
139 1 6.19400 3.34100 14.70400
140 1 4.10300 0.16900 7.75800
141 1 3.74900 3.57500 11.80200
142 1 0.97700 5.60500 9.85000
143 1 5.44700 4.22400 13.89500
144 1 4.83800 0.91000 8.70800
145 1 4.48400 4.31600 12.75200
146 1 1.82600 1.63800 12.28400
147 1 2.03900 4.55000 9.85000
148 1 0.78000 0.58300 12.10000
149 1 4.38400 5.27800 13.89500
150 1 5.88400 1.96400 8.89200
151 1 1.07700 4.64200 8.70700
152 1 4.73800 1.87200 9.85100
153 1 1.74200 0.49100 13.24300
154 1 5.53100 5.37100 12.93600
155 1 5.80100 0.81700 9.85100
156 1 2.12300 5.69700 8.89100
157 1 0.68000 1.54500 13.24300
158 1 -0.20900 2.28600 14.05100
159 1 2.99900 6.58000 8.22400
160 1 6.54800 -0.06500 10.66000
161 1 11.31500 2.61300 11.31200
162 1 9.95500 -0.39200 14.70500
163 1 13.87300 6.25300 12.92300
164 1 7.80700 3.90200 8.41000
165 1 10.25200 3.66700 11.31200
166 1 14.22600 2.84700 8.87900
167 1 10.96100 6.01900 15.35600
168 1 7.51100 -0.15800 11.80300
169 1 10.16800 2.52000 12.27100
170 1 7.55400 6.34600 11.31100
171 1 13.66000 3.34100 15.35700
172 1 11.56900 0.16900 8.41100
173 1 11.21500 3.57500 12.45500
174 1 8.44200 5.60500 10.50300
175 1 12.91200 4.22400 14.54800
176 1 12.30400 0.91000 9.36100
177 1 11.95000 4.31600 13.40500
178 1 9.29200 1.63800 12.93800
179 1 9.50500 4.55000 10.50300
180 1 8.24500 0.58300 12.75300
181 1 11.85000 5.27800 14.54800
182 1 13.35000 1.96400 9.54600
183 1 8.54200 4.64200 9.36000
184 1 12.20400 1.87200 10.50400
185 1 9.20800 0.49100 13.89600
186 1 12.99600 5.37100 13.59000
187 1 13.26600 0.81700 10.50400
188 1 9.58900 5.69700 9.54400
189 1 8.14500 1.54500 13.89600
190 1 7.25700 2.28600 14.70400
191 1 10.46500 6.58000 8.87700
192 1 14.01300 -0.06500 11.31300
193 1 3.79200 10.07800 11.31000
194 1 2.43300 7.07400 14.70300
195 1 6.35000 13.71900 12.92000
196 1 0.28500 11.36700 8.40700
197 1 2.73000 11.13300 11.31000
198 1 6.70400 10.31300 8.87600
199 1 3.43800 13.48500 15.35400
200 1 -0.01200 7.30800 11.80100
201 1 2.64600 9.98600 12.26800
202 1 0.03100 13.81100 11.30900
203 1 6.13700 10.80600 15.35500
204 1 4.04600 7.63500 8.40800
205 1 3.69200 11.04100 12.45200
206 1 0.92000 13.07100 10.50000
207 1 5.39000 11.68900 14.54600
208 1 4.78100 8.37500 9.35900
209 1 4.42700 11.78200 13.40300
210 1 1.76900 9.10300 12.93500
211 1 1.98200 12.01600 10.50100
212 1 0.72300 8.04900 12.75100
213 1 4.32700 12.74400 14.54500
214 1 5.82800 9.43000 9.54300
215 1 1.02000 12.10800 9.35800
216 1 4.68100 9.33800 10.50100
217 1 1.68500 7.95600 13.89400
218 1 5.47400 12.83600 13.58700
219 1 5.74400 8.28300 10.50200
220 1 2.06600 13.16300 9.54200
221 1 0.62300 9.01100 13.89400
222 1 -0.26600 9.75200 14.70200
223 1 2.94300 14.04600 8.87500
224 1 6.49100 7.40000 11.31100
225 1 11.25800 10.07800 11.96300
226 1 9.89800 7.07400 15.35600
227 1 13.81600 13.71900 13.57300
228 1 7.75000 11.36700 9.06000
229 1 10.19500 11.13300 11.96300
230 1 14.17000 10.31300 9.52900
231 1 10.90400 13.48500 16.00700
232 1 7.45400 7.30800 12.45400
233 1 10.11100 9.98600 12.92100
234 1 7.49700 13.81100 11.96200
235 1 13.60300 10.80600 16.00800
236 1 11.51200 7.63500 9.06200
237 1 11.15800 11.04100 13.10600
238 1 8.38500 13.07100 11.15300
239 1 12.85600 11.68900 15.19900
240 1 12.24700 8.37500 10.01200
241 1 11.89300 11.78200 14.05600
242 1 9.23500 9.10300 13.58800
243 1 9.44800 12.01600 11.15400
244 1 8.18800 8.04900 13.40400
245 1 11.79300 12.74400 15.19900
246 1 13.29300 9.43000 10.19600
247 1 8.48500 12.10800 10.01100
248 1 12.14700 9.33800 11.15500
249 1 9.15100 7.95600 14.54700
250 1 12.93900 12.83600 14.24000
251 1 13.20900 8.28300 11.15500
252 1 9.53200 13.16300 10.19500
253 1 8.08800 9.01100 14.54700
254 1 7.20000 9.75200 15.35500
255 1 10.40800 14.04600 9.52800
256 1 13.95700 7.40000 11.96400