USPEX

4000 atoms
1 atom types

-100.0 50.00 xlo xhi
-100.0 50.00 ylo yhi
-100.0 50.00 zlo zhi
0.00 0.00 0.00 xy xz yz

Atoms

1 1 1.31654964841 0.123914453474 3.35836008227
2 1 2.87904931409 -1.40924888481 0.0392700475089
3 1 7.3818217447 -0.646414676405 2.2564307377
4 1 -1.57400417822 6.97309123738 2.09130403941
5 1 6.11253401639 0.388830831729 1.90640442086
6 1 4.25780521838 8.43359545993 8.28112852837
7 1 0.89657701282 3.56838456953 0.156604498544
8 1 3.21778947029 -0.591786853743 6.73800170062
9 1 2.35446088267 7.59982298163 0.456239695525
10 1 6.93946564929 3.23387575728 3.49590043077
11 1 -0.426036419204 -1.86811976908 3.0289342919
12 1 6.18232758712 2.22496002188 -1.58902077834
13 1 2.60893473089 7.88360452476 8.08654845397
14 1 -0.183388786257 4.53770296365 0.336062400893
15 1 4.16124865189 4.14880856287 6.41967317216
16 1 8.07045796045 8.77875403167 3.61475163295
17 1 5.26188379091 0.227740622386 0.333774328514
18 1 1.58539210041 -0.555045377328 7.12910582611
19 1 -1.11022711875 6.6288543017 0.633648366597
20 1 0.181651851133 0.163079340622 6.78760419086
21 1 5.32531818021 6.83632448361 7.74351255726
22 1 4.2474610896 -0.730014067186 -0.546615647307
23 1 0.0338264090838 5.87038141804 0.618660984537
24 1 6.25290831113 1.06581920883 -0.841450318948
25 1 0.183004576628 -0.633956698367 3.51351827631
26 1 4.97542542834 4.05935439101 5.29417980938
27 1 0.1591439844 1.70326233996 7.00559541686
28 1 8.24470689391 -2.81969699276 0.17085468438
29 1 1.53763613114 6.47726403002 -0.181746194177
30 1 8.19704790553 -1.56624127341 1.04104416936
31 1 -1.07911895095 2.57591731617 7.24262698306
32 1 1.96884470439 6.28573948455 -1.61961998031
33 1 11.3823100866 6.08569739788 2.72829282327
34 1 10.2365844903 -0.214823906779 -0.598713657787
35 1 11.9437879664 0.723979911072 5.81287592285
36 1 7.65181565196 3.61765375188 2.36133016462
37 1 12.8765104448 2.10746747698 0.254750515339
38 1 13.6706794281 8.55087868373 8.08337068524
39 1 7.00731937631 3.5320582872 -1.22562960744
40 1 10.1822776042 -1.81512658567 6.80543504891
41 1 10.6243583135 5.03689603407 1.90924842776
42 1 16.826641731 4.19375585525 3.1981635188
43 1 7.80756356394 0.18789504448 3.64258713641
44 1 14.9868812257 2.34920257552 -1.41499252066
45 1 12.3566342619 7.0911626728 5.54570829663
46 1 8.21451260514 3.9649360419 -0.815748425459
47 1 11.0976341321 7.18304311985 6.45464625473
48 1 13.3336664204 4.83670431204 4.05746909581
49 1 13.6488290793 1.60484175565 1.28868547131
50 1 11.5117690391 -1.20067119373 6.85037593929
51 1 7.34367204833 4.79088711925 1.43897077556
52 1 10.5556363595 0.190183198034 3.72133536032
53 1 12.0739771686 5.06816171067 3.65578447357
54 1 10.4577814951 0.0727921345646 0.765611538243
55 1 10.6436219823 3.56892539684 1.51344855076
56 1 15.0570564739 1.04273501161 -0.413252415812
57 1 9.05838506067 -0.0300667487013 4.27738588387
58 1 13.2974223402 8.35375944794 6.1400003864
59 1 11.1742705082 0.464864900365 6.94380457525
60 1 14.9120344315 1.04691185597 1.08831126009
61 1 11.5607942564 3.08712182608 0.469407291414
62 1 15.3128617685 0.0150271914724 1.84158518191
63 1 9.3270141011 0.241228426182 5.94046786908
64 1 9.73075808459 6.30670102483 -3.46264205072
65 1 17.6030446939 -0.39638286429 5.88094470592
66 1 18.0270329141 0.254659414076 0.170499274156
67 1 20.27454091 0.557629890868 3.31149557804
68 1 15.6654128709 5.81245698532 1.50147530351
69 1 19.0859406854 0.761361932691 1.95542323381
70 1 20.947785469 1.32322377742 6.72960091965
71 1 13.7286280357 2.61634370029 -2.65498843614
72 1 17.2588925526 -1.35745798409 5.52051810848
73 1 17.5658326974 5.68686878364 0.240566645257
74 1 24.430093166 8.46847390499 -1.80296990648
75 1 16.5913714933 -0.519735516282 2.73692495985
76 1 20.8723237386 2.61881807782 -1.04667707122
77 1 17.3111647494 7.22180778756 7.51558522188
78 1 17.4091714955 0.408788604223 1.681947948
79 1 19.2184464489 6.09579661301 5.05107565326
80 1 20.7407532999 5.86623768415 5.79740580347
81 1 21.0128349861 0.243427427265 -2.3263091543
82 1 18.1395095202 -2.9282516356 5.80852568569
83 1 16.9652055206 6.34510284182 1.36377280481
84 1 16.397834422 0.878035959081 5.56084551025
85 1 21.641287369 0.146518733233 7.20637003295
86 1 18.1174143434 -0.956801873825 -0.337442658981
87 1 17.2372388616 5.59807473227 -1.63136276509
88 1 20.4176163378 0.980833394799 -0.919196042967
89 1 16.4487948309 -0.827043819901 4.1571072991
90 1 21.3710988316 6.32649059955 7.17776318182
91 1 14.8783816483 0.415228558368 6.04117412563
92 1 19.3993790917 -1.7826165852 0.84345939883
93 1 20.3086688887 8.0774429737 -1.60601264074
94 1 20.8184395971 -0.990773734487 1.38085533991
95 1 13.2811489197 0.497108906073 5.99886030335
96 1 19.5641414041 8.37646462631 -3.1445775731
97 1 23.1684871461 1.79856425812 3.59576919146
98 1 25.0455442143 -0.840025414666 0.775753842798
99 1 28.009296544 5.50507969272 3.12328061885
100 1 26.4092526359 6.51526296098 -0.689875699556
101 1 25.244117387 3.32746595476 2.45013626048
102 1 30.3432994857 4.30648503143 6.60757622308
103 1 22.4867189539 2.50421330326 -0.99262247082
104 1 25.4469421512 -1.76706064393 7.60270219677
105 1 24.2114677749 2.64483211299 3.55836031575
106 1 30.4627528462 7.83249117715 2.09187993362
107 1 21.1233851751 -0.741408977097 2.90178418501
108 1 28.1692867048 2.63160057927 -0.657837220497
109 1 25.8767860057 6.58362660591 6.35614678576
110 1 23.6752813462 1.52502023025 -0.26450739887
111 1 27.8311372883 0.0345308863442 7.06505227916
112 1 29.1538555424 6.05329388931 3.87023722423
113 1 28.1660515558 0.00212087150302 -0.0749109024327
114 1 23.9329611226 -1.54561484688 7.56959402611
115 1 24.90361673 6.96339766478 -1.52537465396
116 1 23.1172002285 0.566864207811 4.19575229575
117 1 29.4729296069 3.68217126116 4.97406597396
118 1 26.8204298783 -0.560653188683 -1.12670005789
119 1 26.4556218414 4.79641354348 -0.386729079638
120 1 27.8742385239 1.55364319154 0.0838493428633
121 1 22.4987644356 -0.730250377391 3.23307061585
122 1 25.0840374368 7.2128341627 5.14382496326
123 1 22.916944226 -0.150213119657 7.03372526789
124 1 29.6868789918 -0.447733663319 0.400817046807
125 1 23.5616775219 6.27798708209 -1.42361969483
126 1 29.9997522896 -1.37663138529 1.47945232911
127 1 23.677725553 0.0694203901042 5.73189368946
128 1 23.1931234843 4.82172824761 -1.05454490843
129 1 33.6459353068 2.87797165267 4.43003372049
130 1 34.340489251 -0.0533741598714 0.820355115349
131 1 39.3396805172 4.70304400602 6.72317524356
132 1 29.4949560676 6.86631771361 0.354530208304
133 1 39.1348129384 1.24881145597 -1.67860529141
134 1 38.3643286424 1.61180364927 7.53741530811
135 1 29.3891022426 3.17215676822 -1.39635065576
136 1 33.677077036 -0.540062446592 8.12994417287
137 1 31.673504402 5.83670609403 -0.798764092559
138 1 37.396562176 9.07999877686 3.09695794943
139 1 29.6537961482 -2.27886876652 3.05736278142
140 1 37.7680575119 3.24227817111 -0.603437531993
141 1 34.5657855542 5.83522133073 7.59490427016
142 1 29.9501779283 4.48710063655 -1.12338304562
143 1 38.2122031267 3.3668035611 5.71488699971
144 1 37.7863344409 8.93170979613 4.75928892407
145 1 36.8171863902 1.03355685442 0.786040866562
146 1 32.3857449553 -1.44591921266 8.02071519041
147 1 29.8486753993 6.11875651569 -0.878706926103
148 1 33.1515329535 1.83838044203 3.05201131589
149 1 38.1298811858 1.67979654672 5.89554203802
150 1 35.4478250784 0.845590139683 0.137237202366
151 1 36.2050712854 3.65340254097 0.575273971574
152 1 38.6399918281 2.32934443016 -0.933528183272
153 1 28.7643247689 -3.0280457675 3.96045586574
154 1 36.7903370892 8.19815160419 5.55972571441
155 1 31.1314353659 -0.786465534587 8.59571572473
156 1 37.4331808935 0.490081469674 2.28535168744
157 1 35.4586983846 4.71160140833 0.583369463684
158 1 36.9302918319 -0.463235592573 3.45241826773
159 1 32.8160416096 1.37477984099 6.00190029835
160 1 34.8157907228 5.53574576335 -0.447949658908
161 1 -0.671405167834 10.921854929 3.45787790293
162 1 2.41524718456 7.44144939717 -1.94970161299
163 1 0.684277793804 10.8605389941 2.43135282876
164 1 -0.52485490205 13.5230210859 2.53448772852
165 1 4.16864392118 8.03987379205 2.92956910757
166 1 4.83095126696 12.2330236073 6.83691352286
167 1 -0.767451722176 10.5707985075 -0.662335933305
168 1 0.980234241754 9.27778137865 6.33336126045
169 1 2.13740689208 10.2842661038 2.8110916674
170 1 7.23028218245 13.4246541378 2.57993481109
171 1 -1.61623598193 8.32670383776 2.91090174026
172 1 7.52371151184 10.4823107786 -1.07622988401
173 1 1.98736840069 12.9224187874 7.60569450976
174 1 -0.944815099834 10.8458157491 0.576208431103
175 1 6.69213209688 14.2712403124 4.84445734854
176 1 7.85009691118 13.8934988214 3.84825793482
177 1 6.23937727488 10.0971473719 0.920288164905
178 1 0.636858209414 10.1306975987 5.04108017799
179 1 0.232543035947 13.3765497633 1.20746379538
180 1 -0.62544715286 10.7033667583 4.75835799038
181 1 5.95720940316 11.4810999398 7.39843932423
182 1 3.74217138708 7.67488692383 -2.17126848694
183 1 0.25301527155 11.7109797575 1.03695987687
184 1 6.26549674197 11.0485363998 -0.593892720645
185 1 -1.34243475164 8.32820783306 4.31739662656
186 1 4.18411448599 16.4759938035 10.7951063299
187 1 -1.618699581 11.6139152581 5.52686457318
188 1 4.86566146099 8.4755008348 -1.37981950113
189 1 1.69725336131 14.4959219112 1.07059092557
190 1 6.47917279773 12.0508867557 3.16887648605
191 1 -2.72105376034 11.1399088705 5.86152249921
192 1 2.39962887392 14.5755198194 -0.570841533495
193 1 5.75007546088 11.1422957457 2.04365262499
194 1 9.66611534608 7.32019127523 -2.47110380185
195 1 12.3180242293 10.5356598241 2.56302814089
196 1 11.0060651151 12.4773232963 1.50027998522
197 1 12.6286597215 9.05926962842 2.03177227585
198 1 12.6213124353 8.99684481673 9.03687695081
199 1 6.78750833086 12.5647229643 -4.77014709414
200 1 9.07168104466 6.06385936443 7.99591222334
201 1 13.6148850176 12.447762922 1.1465944496
202 1 14.3234619716 15.5215519981 2.32097368485
203 1 7.48217041797 7.22449388278 4.38554797422
204 1 13.8238919435 11.7152931937 -1.55123213581
205 1 12.3919634875 13.1549002105 5.94177804681
206 1 8.74837391032 11.3668363972 -0.537329763142
207 1 11.6313570984 14.788842349 3.63472582256
208 1 12.4481330908 13.9820880354 2.7625429438
209 1 11.9905488188 8.89955840375 0.599295965203
210 1 10.5539041378 9.01810379875 4.59764416019
211 1 10.0291769302 11.7015372276 0.340826103423
212 1 10.2439049795 10.3715869042 4.1497042785
213 1 18.6239861613 17.2083587007 6.50942595652
214 1 10.6625021893 7.67342504981 -1.46268995917
215 1 12.4478287186 11.9917290768 1.81313055841
216 1 13.725300163 11.6238890215 -0.141355612079
217 1 9.56956664412 9.63156055198 6.82506719778
218 1 11.612617431 13.9979077765 4.90267108879
219 1 10.0791098035 8.08785789318 5.42404915048
220 1 10.8034758602 8.22314436665 -0.0524717110842
221 1 8.37348970503 16.6854495562 -1.11681809902
222 1 15.5430183125 4.62373690843 2.24861648262
223 1 5.88242505251 9.91949069347 7.65441281552
224 1 9.63031076745 16.0947084149 -1.86948047276
225 1 18.9646767597 7.95374578674 3.05699477376
226 1 18.5132207845 7.46671821711 -3.3258647326
227 1 16.3815693305 13.9307987768 3.01533868107
228 1 16.8709939337 14.6820407602 1.44985880514
229 1 19.9500185287 9.16926950907 3.42893022956
230 1 22.573428843 11.181291028 6.30356443089
231 1 15.680575182 11.9629641131 -2.55433424196
232 1 18.2583105263 7.84662904763 7.0750944586
233 1 17.2875710766 13.1238852208 4.68109108676
234 1 22.9264156861 15.0514202685 5.431461138
235 1 14.9700092058 8.75478259489 4.14967523083
236 1 20.7675752217 9.2530220762 -0.784297769128
237 1 18.545476466 14.6961838067 9.90673304914
238 1 17.6610242501 11.3235957201 -0.835910917936
239 1 21.9098036726 14.7210227922 2.77619433586
240 1 22.091733111 13.3344360413 3.77936535266
241 1 20.7482433395 10.2742565534 2.34309401599
242 1 19.8971449128 10.8765087845 5.31985035071
243 1 16.4425286237 14.613057136 0.250099252069
244 1 18.1377746039 9.79460239641 4.26089096624
245 1 20.7957760544 11.9327299855 2.86187025864
246 1 19.9015609096 6.79388563082 -0.812812341758
247 1 17.9504884712 11.9708523217 0.494497492085
248 1 19.8386309776 10.586616069 -0.912351206618
249 1 14.366678871 7.57156550596 4.95265607358
250 1 21.3909799078 12.2612370855 3.9872772462
251 1 19.4067844277 9.67576308408 4.59358540155
252 1 19.9348108782 10.4256070141 0.784538447953
253 1 14.3242384153 16.0070104029 -0.541264073695
254 1 22.8763217373 9.98008673916 0.522136709578
255 1 12.745286976 10.3552211655 8.85485428948
256 1 16.8198121749 12.12831949 -1.76090581111
257 1 26.7616367325 10.736250558 7.31843833263
258 1 25.0590614564 9.70640264507 1.95732843144
259 1 25.7852760174 12.1243856789 0.646016178905
260 1 22.6172479513 13.7629974693 1.45846898219
261 1 26.9704404829 12.1487646392 -0.0710647943005
262 1 29.7433620806 8.62865118327 5.21308955534
263 1 24.9929365753 10.8008833587 0.786023061433
264 1 26.6598337523 12.0358710987 2.44760389127
265 1 27.4816700125 13.2806848772 2.6164104676
266 1 31.4765157934 14.0984549845 4.49828131893
267 1 22.2099123687 9.09173333951 -0.35535261583
268 1 29.7499349462 10.5244668145 -0.0103255061921
269 1 26.6635334719 15.5882472827 6.80994653798
270 1 23.4404625271 11.0263630516 0.343230233746
271 1 26.7758425677 14.2578831483 2.01120336898
272 1 27.4021801941 14.9367170134 0.905105244627
273 1 27.5875020137 10.6088262898 -0.46116409236
274 1 24.694126026 7.44491936401 8.13908724228
275 1 23.5647774504 12.8394730418 0.765619703198
276 1 26.0670354374 10.4891788348 2.76737777992
277 1 27.1701631142 10.0320191544 5.77646624237
278 1 26.9031567239 9.65310486117 -1.62501938171
279 1 26.3909158718 9.93379879513 -3.27290348763
280 1 28.3448167383 9.84833530007 0.185776004783
281 1 23.7380076379 10.2449132737 6.76729133399
282 1 27.4931147908 10.3199384095 8.56599482556
283 1 23.8306042003 13.6643443344 5.86005406046
284 1 28.1574998614 8.83711209262 1.1252247064
285 1 27.066590684 11.1841252239 -3.98240617227
286 1 29.5444038756 8.32450408781 1.59568685314
287 1 23.1600261446 12.2980619967 5.43744636107
288 1 26.9490637478 15.0016900722 -0.290770596908
289 1 35.7534173731 10.8368888343 4.98760981256
290 1 34.8628540323 7.19251722897 -0.381960448403
291 1 34.3920728041 11.1608610818 4.92372777588
292 1 30.2281237818 13.5576787796 2.27173410563
293 1 37.0493339122 10.0810648737 0.188867472769
294 1 41.6863411695 13.0286545641 5.38368530777
295 1 31.0168719359 11.3507770883 -0.92881702832
296 1 33.4647661953 8.38556984271 7.27141253316
297 1 32.6885011986 13.357565485 0.0122436195575
298 1 39.1166416431 15.3100379704 3.4947399514
299 1 30.4557848186 6.696896352 3.65819051692
300 1 38.8609616071 12.1546572776 -0.706192037633
301 1 36.8073354275 11.9392788188 4.90568888494
302 1 31.2747469875 13.0463204119 -0.525614668298
303 1 33.5599747623 11.4269878719 3.70563432967
304 1 39.2571419427 15.2966525161 5.12939682288
305 1 37.0686260002 8.70292438147 -0.284567074177
306 1 31.0705947979 9.16865772614 6.27904306835
307 1 30.3967126759 12.8989287541 0.900158738905
308 1 31.0828997173 10.7565279722 6.60120219442
309 1 37.686521066 12.7148275552 5.99321100714
310 1 36.1161310536 7.99800044634 -0.963749636956
311 1 33.2561865894 14.6050413539 -0.00185007220246
312 1 40.1140420973 12.1697021998 -1.42901069376
313 1 30.3600646958 11.1836923028 5.35283945086
314 1 38.6058487577 13.5687779548 5.38184369308
315 1 32.0632432845 8.25810562691 7.06367226661
316 1 37.4020768025 7.69301178266 0.813835046064
317 1 34.1074639246 15.3492033274 -1.00921261286
318 1 37.9836994857 8.4034790262 2.12644680842
319 1 29.5907920483 9.89089942968 4.74862908194
320 1 34.2678192977 14.8734001258 -2.28677129597
321 1 1.61392456829 18.4543559507 3.96320147028
322 1 2.92196414218 15.7587836036 -0.38039446467
323 1 2.25200063732 21.7417507858 5.10652320936
324 1 -1.77929140381 21.6479807149 2.35058319379
325 1 5.24675492369 17.4305441435 3.21834403719
326 1 4.82872539617 19.8830416047 7.68554559644
327 1 0.9105368652 18.2142239599 0.800936332925
328 1 2.82367658217 14.0835861143 8.07778010418
329 1 1.85774146647 20.0105965838 3.44654321802
330 1 8.87633044286 22.7383735051 2.82596652103
331 1 -0.215810864505 14.5524674902 3.46640458677
332 1 5.36667912208 19.6658230432 -0.549145179329
333 1 6.5729120818 23.6286390555 3.88756252403
334 1 0.464314790959 19.6617089872 1.62230443349
335 1 2.6930449471 21.0424173068 4.02322067188
336 1 6.70162475076 17.9921967972 3.75007349343
337 1 5.1571142628 17.1077236396 -1.27345055522
338 1 -1.52223795776 14.8789951164 6.15846738772
339 1 -0.353794265753 20.4824150371 0.533848653227
340 1 0.148788381175 17.8631087463 4.6207617804
341 1 6.52996216112 19.3622189805 4.50407905975
342 1 3.64009005248 16.7806187724 -1.35534360967
343 1 0.71596861385 20.2533553271 2.86540495262
344 1 5.81128126295 18.5258266839 -0.884415297477
345 1 -1.4625121955 14.7541361141 4.58258371617
346 1 3.49110764388 19.8634840482 6.86103380631
347 1 -0.72228317602 17.7915103032 6.12291434406
348 1 5.84656970163 15.6126216114 -1.26984912883
349 1 1.49766460538 22.5415009022 -1.79166451803
350 1 7.27762025802 15.6610831853 -1.03631583934
351 1 -2.3599039744 18.2923511592 6.56010130646
352 1 2.66109430069 21.1098636298 -2.01057152271
353 1 10.0783708953 15.617109953 3.86622484852
354 1 10.2195623194 15.1531013561 -0.885352716595
355 1 12.2908184109 18.645866602 4.016386471
356 1 8.60090768181 20.6662347408 0.852635526021
357 1 12.0897429819 18.7742981868 2.78321397249
358 1 14.223338787 17.6901758929 7.14887126575
359 1 6.32920804465 21.0514953219 -0.604181628384
360 1 12.3204831027 18.9750893581 7.75594644986
361 1 10.0706424402 21.4321694154 0.924450648649
362 1 14.0333483415 20.6774637511 6.53995725637
363 1 4.96366655916 15.8160318757 3.60033636762
364 1 13.6057832861 19.2891185143 -1.33642230623
365 1 10.4838138593 22.4541948274 6.48483398573
366 1 7.58252903252 20.6099833055 -0.52628181002
367 1 12.8268918098 19.6415135712 5.07551503894
368 1 11.2028173787 20.9504903079 1.26023221841
369 1 14.7978676556 18.5624837403 0.529862186715
370 1 9.44633403956 14.3370023569 4.13194260381
371 1 8.44068319794 21.7459656768 -0.895085629542
372 1 8.60761600284 16.3765379914 3.22444425908
373 1 15.5722987225 18.2027847939 7.06100256337
374 1 11.6540546414 15.8085660097 -0.473085019101
375 1 11.1758258408 17.9048529273 2.03109442098
376 1 13.8932076639 18.076772977 -0.535906057914
377 1 11.0230676461 15.8720678505 5.20832425513
378 1 18.1746604057 22.0803590384 4.13588644983
379 1 6.99832179188 20.7861851493 4.22695038477
380 1 13.0671168626 15.3198068689 -0.189638638434
381 1 9.04008746869 21.9414261521 -2.13334448433
382 1 13.8446343323 13.8400131845 0.3608121102
383 1 5.55797929955 15.2826850103 4.78375831929
384 1 9.4813494244 23.1431114886 -2.78858818713
385 1 14.8883473691 20.1003647332 3.70823200768
386 1 20.0166639329 17.1113921388 -0.264894027003
387 1 17.9948398356 21.4592626499 2.79774012534
388 1 15.262864704 19.7617248627 -0.0824414062302
389 1 19.5548232576 18.1777607872 -0.703429410811
390 1 23.4550350186 20.1030278033 6.81106753178
391 1 15.7691247859 21.2730178084 -3.09471832724
392 1 16.0571656008 14.9602684162 10.3251355566
393 1 16.5591685775 21.1955836091 2.09743178834
394 1 20.285239569 21.4259911479 1.44731535742
395 1 13.5632214756 14.4220340443 1.67492572987
396 1 22.0232469323 16.5861355267 -3.86019941215
397 1 19.2327934716 21.6171644463 2.19784928843
398 1 16.2892943072 20.9682626684 -2.19215422293
399 1 21.3331077789 21.9906256896 6.8871813881
400 1 21.8559918232 22.8206474434 6.19660444132
401 1 15.6162463229 15.3650028704 -0.704542134822
402 1 15.5860955826 15.1413788071 3.45655326094
403 1 16.2177678707 20.138651853 -1.0357112531
404 1 14.9789182705 18.7312719488 4.0364183906
405 1 22.3122279779 18.2741549822 4.56365700241
406 1 18.4266907487 16.4241223279 -0.290309982427
407 1 20.4958019746 19.5711886121 -0.406424211337
408 1 22.3038874388 16.0531510937 -2.45583725852
409 1 18.6239521452 15.9312171904 7.15980865626
410 1 20.0087840365 21.8023219753 7.54615390951
411 1 18.6760345922 19.7343511522 6.1407251604
412 1 22.5235615694 16.9554678099 -1.20589888579
413 1 19.9131180532 20.7971945314 0.098921251584
414 1 21.4452508194 16.5118425915 -0.261599910617
415 1 13.4457511007 17.1316559588 6.23411413181
416 1 19.3037091431 21.9242757612 -0.765739451242
417 1 24.8586462262 18.0651494874 3.75491741438
418 1 26.9857424233 15.9643064998 -1.91336094922
419 1 23.3613195761 18.3711778346 3.84007123137
420 1 23.3238828372 20.6136987878 0.145460061127
421 1 24.9183239704 18.7607997281 1.11450488791
422 1 27.5437103592 18.8437401345 6.44044617281
423 1 23.5284283081 18.8806858233 0.372329907794
424 1 27.765831512 15.3884509897 6.19212832241
425 1 25.0422386395 20.3555383047 1.22056431165
426 1 31.4842771639 21.815108194 3.22036846543
427 1 21.5871371303 17.2279337461 4.27997347289
428 1 29.6002045565 18.6794995107 -3.32870276835
429 1 29.0970611065 21.6500622513 7.45101838407
430 1 23.7090784365 17.736658443 -0.564890121967
431 1 29.9299385368 19.9162969449 4.44212818072
432 1 30.634095804 22.7920979251 2.32660362063
433 1 30.2426791529 17.4693031409 1.95698707605
434 1 23.8604261206 17.3253726288 6.75096867635
435 1 24.7270239016 21.5995228843 0.227774801464
436 1 27.6459594635 18.3064746047 1.6242304417
437 1 31.1716585379 20.5089425925 3.80884693673
438 1 27.5151508451 17.4507237827 -2.17560380969
439 1 22.1032537333 21.0512020153 1.39845478832
440 1 29.8903354403 18.9968262277 0.218989197034
441 1 22.4725027855 15.8827118327 4.10503631227
442 1 25.2599598882 17.7468117646 5.46468394999
443 1 25.3159539794 16.2648994247 7.6868989373
444 1 27.052352048 12.415782001 -3.5617713836
445 1 25.8326464184 21.961826984 -0.745438582106
446 1 28.9115357847 17.6604140863 0.999503971557
447 1 22.0936654828 19.9738354116 5.28366438913
448 1 27.7263986757 25.5729123522 -5.52600389488
449 1 37.1848045849 17.3864390302 4.80802100952
450 1 35.7504825309 14.7398856011 -3.10079878721
451 1 36.9364536065 17.5656974082 6.18545747286
452 1 29.9936281251 22.2855709983 -0.669871160641
453 1 37.6964793823 14.1176148459 0.760072803126
454 1 39.1120108367 19.419524129 7.0680456486
455 1 28.8715428396 17.900928043 -2.49831829062
456 1 31.0456380958 15.723210422 4.96990444702
457 1 35.2330023697 20.5910529273 -0.909684232539
458 1 38.2994954232 24.2942295491 3.0998390623
459 1 31.3896983931 13.7081641684 3.29014203978
460 1 38.544263035 20.859065315 -0.337984156658
461 1 35.929971517 19.9469315047 6.1795373444
462 1 31.0836456331 19.3737576888 -0.559629615614
463 1 32.244636883 24.3278294083 2.69958849843
464 1 37.274185129 25.4226330874 3.25263271317
465 1 38.6997581914 15.1908750793 0.639369583897
466 1 35.2542589006 13.7645148649 8.49430480584
467 1 30.8721215388 21.3201126592 -0.392690756063
468 1 32.2008959798 19.7204423849 4.19621913834
469 1 40.2463142784 19.5337205048 7.19970083435
470 1 35.9832961242 15.61465461 -0.55111414492
471 1 31.9219662295 18.4756667265 -1.28249448552
472 1 37.8793295724 20.2036030222 -1.52989364668
473 1 32.1613273476 19.0098668784 5.56825350435
474 1 40.8103453403 20.6663582386 8.45685752952
475 1 28.7117196985 16.5416425405 5.82947430235
476 1 39.0230496729 16.1036410393 1.42166559151
477 1 32.2568427846 21.1362237752 -0.928896042083
478 1 38.6820083604 16.2113477856 2.62843567254
479 1 29.9825449183 15.7762998213 6.26075624179
480 1 33.2554320605 21.7980774216 -0.198845860138
481 1 0.033443062883 26.9670170145 3.12243054852
482 1 1.75636728404 23.6277935471 -1.11179482614
483 1 8.83313692567 25.3553637956 6.29406670203
484 1 0.360007060049 30.3541075584 -0.353685825927
485 1 4.76433807894 24.7165652415 -0.14250814102
486 1 5.75443701473 24.4928805366 8.44107387523
487 1 0.924552318457 24.4927716326 0.180479350986
488 1 -0.357480461802 23.5456823099 10.7036757898
489 1 1.39809392549 28.191102022 3.29887147512
490 1 5.86244032662 29.3115321744 4.00354093426
491 1 -0.813497591775 22.9267367483 3.04064529076
492 1 9.01607931513 24.5870983758 0.079817254904
493 1 2.59981371548 30.0907720493 6.27853749114
494 1 0.285909959587 25.96069639 -0.08265553161
495 1 2.07917073628 27.5909577758 2.61841631131
496 1 3.85710744584 27.084426823 2.57549314117
497 1 4.05873137485 25.1302240074 -1.49274695696
498 1 1.31384697237 27.9355174941 4.67844500278
499 1 1.33378849885 31.0410602857 0.414363546422
500 1 -2.2391818123 25.281301821 1.9216826164
501 1 3.4209579265 27.6271429822 5.95309277526
502 1 2.75425579027 24.5405800838 -2.01466466096
503 1 0.73394356255 26.4928471609 -1.34551959233
504 1 8.20647701254 25.9562186785 0.590203754748
505 1 -0.730197665651 24.5189677333 2.46849648083
506 1 7.83062022423 26.0612110966 5.6904059521
507 1 -1.23270297911 23.6905533348 9.24672209349
508 1 6.65079836609 25.5835815685 1.34774556031
509 1 1.71551548096 27.8618490239 -0.94984674944
510 1 5.3439229345 25.8725342614 0.769505117616
511 1 -3.49087657694 25.3150333733 8.39973672138
512 1 2.66496280378 30.9081859089 1.48275097547
513 1 11.9886343328 26.0877948251 5.10811256064
514 1 10.4641159452 24.2151548284 -3.18668559582
515 1 11.6563879141 26.2663123827 3.72794905771
516 1 10.0735564335 27.3451448289 1.70034870746
517 1 12.390118116 25.270181605 2.78332191349
518 1 14.8879673604 28.1808387072 4.97246350738
519 1 8.20565399283 22.8947720412 -0.120714713178
520 1 11.8290929249 22.3858510766 5.28290752097
521 1 10.0117449481 26.6383634809 3.14896122102
522 1 11.5713201807 30.4492091235 3.42741371268
523 1 10.0619221065 22.5194555439 2.8195484706
524 1 13.9979192316 25.2631628089 -3.40703188348
525 1 12.1807499638 28.0427527791 7.02854390656
526 1 8.700465222 27.2717372996 0.392632790626
527 1 11.5918520657 31.7789073965 5.87033446407
528 1 17.1888314357 28.5221463357 4.36012406409
529 1 10.2045322799 25.5565277926 -0.609241358553
530 1 12.2872612542 23.6739138665 5.17061122791
531 1 7.46742996741 28.3694711311 0.185241311515
532 1 10.9708863158 24.7460986043 5.57798619587
533 1 12.9945111098 28.6326112412 8.12107958598
534 1 11.1315323292 24.987227276 -1.7712074979
535 1 11.5048364088 28.3363088499 -2.47569120605
536 1 15.6800120856 24.7953044162 0.761893959872
537 1 7.67816187947 22.9126722435 3.62324594399
538 1 12.3516919823 30.9363737994 4.67302844005
539 1 5.60266539823 21.6760728485 7.97030381632
540 1 14.3611811019 24.5873373979 1.98360940855
541 1 9.90421496571 26.9022268899 -0.79723154901
542 1 13.2472689751 25.5931046157 1.98993452904
543 1 6.83020294607 30.8913638608 12.718975202
544 1 12.0492872597 28.1045158443 -0.867689982386
545 1 19.1216592951 24.9439054602 3.30949074117
546 1 18.3727447785 23.1986811936 -1.37276862336
547 1 18.1462743691 27.1692651067 2.21952067887
548 1 17.7764260122 32.1642598806 3.96678097979
549 1 21.2045527248 25.7709044264 2.879752882
550 1 22.1718000677 25.5106028624 6.42173280895
551 1 14.8033284251 26.6954258681 -2.73727640656
552 1 16.8628673131 22.82285507 9.68852082198
553 1 18.314264266 27.7377457725 0.979201137435
554 1 22.9578334588 30.1996639228 0.0293702648746
555 1 16.2925330102 21.5992331604 0.734545495506
556 1 22.5855825907 25.8853314023 -1.59354731109
557 1 18.6644164969 27.1626008476 7.8210027841
558 1 15.9809921924 26.8974733116 -2.17161575707
559 1 20.0308446314 28.3723673059 4.47505157439
560 1 20.5407758147 29.6675100399 6.5677142047
561 1 20.2149265285 24.1386202574 0.393197695942
562 1 17.1142523834 21.9892869297 5.45265767531
563 1 16.8683396778 26.1521280123 -1.10006105623
564 1 18.7525258197 25.8814374479 2.43795779434
565 1 18.2995527372 27.8974882809 3.57137359086
566 1 18.7113018715 24.3494284378 -0.3355626078
567 1 18.0223813578 26.882731072 -0.551791387507
568 1 22.3639736234 25.734265262 0.132474794285
569 1 16.6828968699 23.5947594502 6.12469712973
570 1 18.4153143777 28.304991234 6.46750556514
571 1 18.5429612002 23.7407215668 3.83997979094
572 1 22.8183394201 24.5464579734 0.446043873606
573 1 16.0368336579 28.6164878493 -2.29802738582
574 1 23.6656390569 23.8653875958 1.5313071321
575 1 14.3480208097 27.0952353853 10.0261775424
576 1 17.2629399725 29.4735769718 -1.93481877802
577 1 27.4140951025 27.275897756 3.5692056083
578 1 27.3456786734 22.2787937104 -0.372510423087
579 1 31.7954332993 28.9372808906 0.410481898282
580 1 23.9486610056 29.3290214593 0.1207664256
581 1 28.2046736342 26.5870095487 2.55447867985
582 1 31.9732436501 26.7113358901 6.41545174033
583 1 21.8479222594 25.2739088037 -2.73561901199
584 1 24.4473504727 27.1785667866 5.22960739605
585 1 26.0265588032 27.6116712734 3.48177612004
586 1 30.4176874544 27.9738506489 4.79516944996
587 1 22.1422460069 22.8094483195 4.42757157508
588 1 30.0058046365 27.2858728673 -0.927819542409
589 1 26.4834620374 29.0530751541 5.50578074169
590 1 22.0514804819 26.6674818265 0.888768672421
591 1 21.6471759896 24.3742201546 6.95409755292
592 1 28.8338885221 27.6652185455 5.66821543563
593 1 27.4354202347 25.7094209695 1.14530693526
594 1 24.1500439381 23.4819699865 3.09482263637
595 1 25.0549422621 28.1832326142 1.18710172461
596 1 23.3706482519 22.4827771739 3.92533971299
597 1 31.4620821191 27.0212939393 5.18873430643
598 1 27.7268342077 23.8804724227 -0.528329804984
599 1 24.6657366307 27.4159130887 2.60051487332
600 1 28.3107249738 26.8203102572 -0.820308308662
601 1 22.4829112645 26.1912017824 2.10348795128
602 1 25.5528644941 28.2417977186 4.60845242148
603 1 21.0604949924 23.9545136062 9.6140218696
604 1 27.2398375377 25.6564453831 -0.239688080355
605 1 25.835686052 28.6641165054 -3.46321875758
606 1 31.7755151391 25.5175125371 3.21403444926
607 1 23.7097054465 25.6842390965 6.12737265493
608 1 24.4929660136 28.6040272503 -2.14315204864
609 1 33.8294433076 24.8101666017 7.66571919138
610 1 34.8626831865 21.9264270022 -0.212162293466
611 1 38.5575812847 26.9229626863 2.92524830431
612 1 28.4614894205 27.9672074582 4.29698554316
613 1 33.6220761548 23.9644091461 1.64820707938
614 1 37.7083499356 26.6336470241 5.84536817947
615 1 31.0701957762 26.4452429522 -1.4226245589
616 1 30.9439766737 26.0674159627 9.18274793906
617 1 33.3927816955 26.1704064308 1.59760047225
618 1 38.3899796797 29.8334005642 3.8294154582