USPEX

14 atoms
1 atom types

0.0 30.00 xlo xhi
0.0 30.00 ylo yhi
0.0 30.00 zlo zhi
0.00 0.00 0.00 xy xz yz

Atoms

1 1 3.68914254504 4.69923327616 6.37117407866
2 1 6.7861124338 8.17813999413 6.90673098388
3 1 3.66862163963 8.1597598086 9.78851232492
4 1 4.80579316358 7.24298617825 8.54578949841
5 1 4.48672037237 5.46337697592 7.92393463816
6 1 6.34516326515 6.62353761565 7.04862425745
7 1 9.21081138815 6.37047374932 4.33065222136
8 1 6.62557930444 5.69687251844 8.67125730606
9 1 8.57616576726 7.63988029189 5.62818076815
10 1 7.5007270571 4.76154027635 10.0784672193
11 1 7.11783135322 8.93476520098 5.14666729242
12 1 8.58036074924 8.99103621852 7.08843831607
13 1 9.70572440855 9.91908007391 8.2967108489
14 1 5.95301002906 10.0915238499 4.16963166016

