4000
Atoms. Timestep: 0
1 4.36104 0.527201 8.39939
1 5.75311 0.0506172 1.17545
1 9.95954 0.136294 5.18073
1 1.8147 9.19792 1.3604
1 9.02814 0.142814 4.13645
1 5.84674 0.0494745 6.39549
1 0.107114 8.99349 -2.95853
1 3.56136 -0.153683 9.5648
1 2.10377 9.07301 -1.21191
1 5.61803 10.8241 4.18701
1 -0.244139 0.344574 2.20351
1 12.6355 5.39485 -1.17206
1 1.25196 10.4513 7.52484
1 0.609581 9.00699 -1.60213
1 5.94132 5.42463 3.97725
1 5.66746 4.56781 5.08291
1 7.63695 -0.0049665 4.50259
1 2.7858 0.60816 10.4246
1 2.6897 8.92196 0.14294
1 4.32454 2.02648 8.41445
1 6.4668 6.85386 4.28781
1 6.80406 -0.0895595 2.20835
1 4.07749 8.55209 0.307616
1 13.1937 4.27403 -1.90878
1 -1.00355 -0.92163 1.97373
1 5.19342 3.24809 4.8591
1 3.75429 2.71444 9.6114
1 6.59648 -0.0735803 3.56863
1 4.65371 7.67173 1.2754
1 7.25232 -0.151552 5.96815
1 3.98737 4.16671 9.84917
1 6.09289 4.8936 2.57633
1 13.4246 5.95942 3.12425
1 14.7679 2.39552 -1.93243
1 13.7393 4.7117 0.935958
1 12.3485 6.77495 2.47813
1 14.1055 3.41247 0.260272
1 13.5186 1.51101 5.74469
1 12.8545 5.61556 0.221232
1 11.3398 -0.854545 9.92527
1 14.0395 4.89093 2.3309
1 16.3744 6.99826 4.1209
1 8.199 -0.402786 6.90517
1 16.8382 1.59898 2.14082
1 7.53585 6.66785 6.38919
1 12.0773 6.60926 0.974077
1 8.72966 6.53273 7.25558
1 15.0644 7.22306 4.75974
1 14.6299 2.15675 0.878053
1 10.3084 -0.643962 8.9227
1 11.4119 7.45095 3.23831
1 10.673 -0.238866 7.58392
1 14.7363 8.52775 5.45901
1 13.9885 3.32217 -1.21682
1 11.4803 7.76248 0.215817
1 16.1151 1.94346 0.965275
1 9.63755 -0.335744 6.50228
1 13.9805 6.20634 4.50335
1 11.3208 0.508208 4.91412
1 13.7311 1.56607 1.93846
1 12.2002 8.47505 -0.764821
1 13.5109 1.98417 3.25808
1 12.3389 0.664368 5.91923
1 12.7425 11.0402 -3.23222
1 18.7534 0.936329 4.15798
1 21.4996 6.28183 1.93342
1 19.8462 1.84343 3.75371
1 16.6003 5.85643 3.34321
1 20.6765 4.11498 2.92931
1 20.4249 0.43887 7.19376
1 16.528 1.96635 3.51851
1 17.0126 -0.910738 7.13932
1 19.5497 3.26921 3.45365
1 22.9277 8.16748 4.12545
1 14.1836 1.46239 4.43998
1 23.0192 4.3562 2.43779
1 22.1869 7.28603 8.49221
1 17.1006 3.12058 4.1955
1 21.074 5.09878 8.9532
1 23.0169 9.23049 5.16245
1 22.2037 2.15663 3.29839
1 17.1564 -0.0640585 5.88041
1 17.8926 5.25119 3.14037
1 18.4001 0.629497 5.55045
1 21.8414 4.27757 9.88107
1 20.3914 5.47707 2.47022
1 18.2496 3.86737 3.66262
1 21.9849 3.5778 2.89064
1 15.5928 1.08858 4.3223
1 21.091 6.55819 9.09469
1 16.1242 -0.0954289 4.93425
1 21.1913 1.32906 3.72831
1 19.0658 6.04362 2.67
1 21.3228 -0.158037 3.90897
1 18.5265 4.61113 6.01575
1 18.9564 7.49983 2.44156
1 25.2371 1.32138 6.57985
1 24.1454 -2.36152 -0.302642
1 25.4111 2.61866 5.94107
1 24.0421 7.74591 3.36452
1 26.3588 5.72087 5.36166
1 29.5708 4.53725 8.10509
1 22.846 5.85348 2.09287
1 24.4836 -1.19365 8.20778
1 24.9067 6.81634 1.11296
1 27.5806 8.61466 4.287
1 20.7156 -0.794157 5.06537
1 27.1847 4.1866 2.21921
1 27.1866 6.76635 5.99117
1 23.9599 6.78475 2.22908
1 26.4428 9.15063 6.5928
1 28.7741 7.49013 7.86852
1 26.8607 4.53372 4.79198
1 23.5904 -0.516042 7.27936
1 25.519 5.54581 0.623222
1 24.16 0.477445 6.30338
1 28.4942 5.06431 7.31163
1 24.2218 -2.85907 -1.66249
1 25.354 8.09326 0.654836
1 26.317 4.34367 3.37152
1 21.1467 -0.490249 6.42442
1 28.1 6.42162 7.13717
1 22.283 -1.16334 6.91761
1 28.4088 4.45984 4.6553
1 26.8931 8.43666 3.03768
1 26.6786 3.26416 5.73223
1 19.2297 1.12752 6.63434
1 24.2984 10.4587 0.989313
1 31.5293 3.18808 -0.379202
1 31.3572 0.222128 -1.15647
1 35.8351 6.73831 3.65196
1 28.2199 6.45201 2.13015
1 32.6146 2.44706 -1.12219
1 38.3708 7.39772 4.95941
1 28.2899 5.03232 1.89856
1 33.2134 3.95717 7.25213
1 31.7506 4.49609 0.182362
1 36.7676 7.66833 1.46776
1 27.9848 2.60092 6.03361
1 33.0275 5.11212 -0.0146927
1 33.2342 7.52624 7.67029
1 29.4448 4.4498 1.18648
1 34.6358 6.3667 3.03756
1 36.9524 7.33844 2.8975
1 33.9628 3.04889 -1.19553
1 32.7867 4.58603 6.01676
1 30.807 6.57171 1.29342
1 31.4746 4.28964 5.42083
1 38.164 7.60389 3.52379
1 32.3912 1.14023 -1.72239
1 30.667 5.17521 0.861708
1 34.0917 4.40731 -0.670239
1 29.1221 3.39782 5.51003
1 33.6647 5.72038 3.8471
1 30.5819 3.3402 5.96529
1 35.0318 2.41172 -1.96675
1 31.8511 7.45226 0.869786
1 36.3741 2.88773 -2.0899
1 30.8878 2.3401 7.00877
1 32.187 8.70135 1.55824
1 1.78641 13.0436 2.01734
1 5.18901 5.24679 1.51968
1 1.97455 11.7951 1.32991
1 0.00759702 15.4127 3.11346
1 4.99141 8.19138 2.71435
1 6.26946 10.5849 6.54923
1 1.45106 17.5453 0.403285
1 1.61178 9.25945 8.14307
1 2.62441 14.1942 1.54841
1 9.26975 14.4365 4.88997
1 1.66313 10.5132 2.02884
1 7.51401 11.6543 2.73523
1 2.43293 15.5203 9.97808
1 1.42155 16.3829 1.26753
1 7.12182 12.5875 7.90708
1 7.09911 11.7929 6.72507
1 6.22709 8.03905 3.43783
1 2.89867 8.88417 8.40269
1 0.866658 16.3893 2.54527
1 1.04789 13.0605 3.27556
1 8.25391 13.4618 8.11136
1 5.14066 6.4003 0.807443
1 2.1067 15.1754 0.620899
1 6.83914 10.555 3.49866
1 1.09975 10.5878 3.3244
1 5.94161 12.6159 8.78443
1 0.688281 11.8191 3.95746
1 7.1778 9.12114 3.39012
1 2.14768 14.9706 -0.797855
1 10.3489 8.41328 0.838059
1 0.280026 11.8714 5.41931
1 2.80151 15.797 -1.67615
1 11.8081 11.3208 3.7228
1 11.6483 10.5578 -2.39272
1 9.4627 13.7458 1.86195
1 9.71424 15.3827 3.9138
1 11.2337 11.881 2.41467
1 14.3296 12.3008 6.51595
1 7.77211 11.3922 1.32032
1 9.54251 7.61911 7.67543
1 9.70957 15.0809 2.42404
1 12.9435 13.9691 2.11715
1 10.4802 9.39673 1.80042
1 13.5322 12.2705 -2.96989
1 12.982 14.0272 7.87056
1 8.10762 12.3669 0.322886
1 12.7408 12.11 4.56725
1 13.1137 15.1231 1.35345
1 12.3326 12.6252 1.61445
1 9.91111 12.5918 2.61365
1 8.86678 13.5509 0.571684
1 11.4708 9.94325 4.1034
1 13.5814 11.5595 5.66888
1 11.8879 9.92053 -0.989459
1 7.84826 12.923 3.3151
1 12.6252 12.0405 0.266958
1 11.0553 8.90502 3.17033
1 13.8762 15.183 8.11586
1 8.90272 8.9878 7.56188
1 11.7582 10.8751 0.111981
1 9.01895 14.649 -0.457206
1 10.9814 10.7014 1.38388
1 7.70361 9.30796 8.22696
1 10.069 15.6429 -0.452875
1 17.4093 13.6236 7.82488
1 19.8953 8.09838 1.45352
1 14.5382 12.3331 2.44567
1 15.5943 15.6553 1.40038
1 17.4127 7.89827 4.45264
1 20.3205 12.2542 9.75071
1 13.6863 12.9616 -1.70021
1 14.7411 9.82309 7.79403
1 15.5461 13.3532 2.63341
1 16.2762 13.6282 4.00757
1 16.3362 12.524 4.91859
1 22.8682 9.6542 -1.60857
1 18.7239 13.6575 8.40512
1 13.8152 12.2737 -0.429417
1 16.852 12.3184 7.38967
1 21.3014 13.9672 8.29433
1 18.2909 8.36058 3.39498
1 16.9559 9.08354 6.66793
1 16.003 14.1925 1.52293
1 17.0006 11.2239 8.20282
1 16.914 14.9441 4.26351
1 21.2479 7.55909 1.27908
1 15.1262 11.8092 0.0531735
1 21.963 9.23147 -0.533579
1 15.8772 12.4372 6.30833
1 19.8694 14.244 7.74215
1 17.6023 9.8951 7.68114
1 22.2669 8.3243 0.506273
1 16.3677 12.4777 -0.2363
1 22.9718 10.6118 4.78221
1 17.7124 8.21389 5.84222
1 16.8454 13.6077 0.479887
1 24.1279 12.2228 7.10311
1 25.2674 9.37173 1.41152
1 24.4851 12.4915 5.72289
1 26.1581 13.022 -0.481913
1 27.3403 12.611 4.68457
1 27.0862 16.6417 5.7692
1 23.6897 10.7806 -1.57052
1 24.3133 9.23987 8.76169
1 24.0621 11.5299 4.66674
1 26.5765 14.8636 2.39757
1 22.2371 7.81793 7.0453
1 28.7158 10.9952 1.49744
1 23.3311 16.6847 6.57632
1 24.292 11.3081 -0.28006
1 25.2247 13.7073 5.28327
1 26.8407 14.8622 3.84381
1 27.396 11.5525 3.65615
1 23.5897 9.74763 7.5509
1 24.7194 12.6644 -0.146116
1 23.1903 11.1486 7.52409
1 27.4896 16.0386 4.50704
1 26.1193 9.56259 2.5393
1 23.7377 13.6951 0.187413
1 28.6419 11.2147 2.96593
1 24.7885 11.5396 3.37631
1 26.4972 13.7206 4.59237
1 22.9674 8.87891 6.61288
1 26.0749 10.8865 3.17047
1 24.9695 17.2983 -0.590851
1 27.0412 8.17883 5.56971
1 22.3025 14.9308 8.13673
1 23.9678 14.5041 -2.85941
1 31.1574 12.9573 -1.46827
1 32.9397 9.84062 0.849362
1 35.744 16.1778 5.81982
1 27.6641 15.0282 1.42783
1 31.7055 11.8502 -0.829317
1 41.1935 15.0361 6.13296
1 27.6675 11.39 0.590047
1 32.4462 8.75101 7.73848
1 30.1539 13.8122 -0.909951
1 33.9994 16.0397 3.64632
1 26.9868 7.14269 2.43369
1 33.3391 11.1723 -2.70592
1 33.8174 16.6441 7.45476
1 27.3637 12.734 0.226911
1 36.284 15.767 4.5547
1 33.4375 16.2923 5.0357
1 34.0864 8.71864 -1.15546
1 33.0636 10.098 7.42846
1 28.2386 13.8881 0.729244
1 34.2604 7.43704 6.62431
1 37.7369 15.6034 4.35787
1 33.3376 9.84205 -0.597661
1 29.6767 13.7931 0.412473
1 32.83 10.9919 -1.38634
1 33.3737 10.4569 6.02647
1 34.344 16.3856 6.14412
1 28.0064 8.49079 8.46504
1 35.1945 8.10435 -0.50298
1 30.678 13.6899 1.44139
1 35.4091 7.9031 0.882626
1 26.506 15.8067 6.74363
1 31.139 14.8029 2.22739
1 2.14212 19.8095 6.84504
1 3.28832 17.1257 -1.37592
1 3.06395 18.6958 7.12953
1 1.77916 24.3531 4.35122
1 4.16935 20.0154 -0.948099
1 6.07767 17.4039 8.54223
1 0.235351 18.4011 0.24979
1 3.68723 15.0973 10.5737
1 -0.969223 20.4868 -0.712259
1 6.20575 20.0054 5.71425
1 0.470293 14.2834 3.94684
1 5.66505 19.8137 -1.10647
1 1.29032 22.2393 8.86143
1 0.10304 19.5184 -0.694434
1 5.03752 16.973 9.58117
1 6.57529 20.5737 7.00462
1 3.3639 19.2244 0.0420169
1 0.771506 15.729 7.33898
1 1.75101 25.9161 3.8304
1 0.202576 15.6071 6.064
1 5.19228 17.338 7.21471
1 2.71005 17.9243 -0.363634
1 1.21381 26.0063 2.42715
1 6.37426 20.5413 -2.06864
1 0.123821 14.32 5.32933
1 4.38639 18.4737 6.63352
1 0.577133 14.7612 8.35124
1 3.21926 19.771 1.43255
1 2.05001 25.7602 1.31735
1 8.71322 13.1128 4.4614
1 -0.623963 13.9873 8.36207
1 1.85061 26.2991 -0.0393533
1 10.3428 17.8978 3.55491
1 9.79063 16.9611 0.0358182
1 12.8271 17.5604 3.01852
1 7.14657 20.0696 4.59388
1 11.4592 17.9879 2.61402
1 13.2478 16.4402 8.60723
1 6.35419 18.7438 -0.294106
1 4.9443 19.2911 5.58789
1 8.04507 18.934 4.2203
1 13.3047 22.0409 4.3048
1 10.2013 16.6876 4.40058
1 15.9445 19.719 -0.231224
1 11.8778 18.517 8.07428
1 7.79383 18.51 -0.32903
1 11.8088 19.957 5.89805
1 14.7373 20.5971 7.78643
1 11.2414 18.6232 1.26997
1 8.44144 14.5536 7.25533
1 6.30775 24.1746 -0.937896
1 9.41234 19.0247 3.74807
1 14.086 19.7467 6.83851
1 10.893 17.9409 0.0946388
1 8.48306 17.4647 0.377814
1 15.3723 18.557 0.364928
1 10.9023 14.845 6.73317
1 13.2221 20.276 5.85699
1 9.52257 14.6522 6.28458
1 14.5912 18.563 1.55065
1 7.69489 24.1203 -1.20059
1 13.8165 17.3819 1.99316
1 7.18095 16.4127 8.53899
1 8.24592 23.6328 -2.41997
1 17.6139 15.3026 5.52603
1 18.1112 14.257 0.165579
1 19.7973 17.0137 1.25974
1 13.61 19.903 3.51968
1 20.5794 16.0612 0.441933
1 20.7702 16.5063 7.0611
1 15.7176 21.0548 0.3188
1 19.0065 15.2678 5.64121
1 20.4617 19.0596 0.0201583
1 22.2156 20.44 1.83427
1 14.1524 16.0633 1.48515
1 23.5382 19.278 -1.1149
1 20.5522 21.6329 7.97532
1 14.7886 21.1622 1.50565
1 20.0102 18.4746 1.21314
1 19.0234 18.9291 3.49631
1 20.5935 14.589 0.649831
1 16.2905 17.1529 6.71633
1 14.3054 19.8337 2.24654
1 16.7867 15.782 6.67199
1 20.0712 19.2481 2.50806
1 19.4116 13.7546 0.528514
1 20.185 20.4921 -0.345061
1 23.9968 18.2924 -0.200293
1 13.1554 17.3539 4.42588
1 21.2674 20.4523 8.52369
1 14.9422 17.4065 6.27329
1 23.4881 18.2597 1.156
1 21.1973 21.4931 -0.245501
1 22.9606 17.0335 1.68791
1 14.4352 16.986 4.94341
1 21.14 22.7309 -1.12875
1 21.401 20.6637 5.19906
1 24.9509 15.1411 -2.02139
1 23.9563 18.5579 3.99742
1 20.524 22.535 3.69804
1 23.8327 15.8008 1.58132
1 27.4281 21.3062 7.46766
1 24.4252 19.9624 -2.08171
1 24.1644 15.8653 5.75552
1 22.122 19.5137 5.45672
1 28.189 20.9696 4.65412
1 21.7837 16.9592 2.52726
1 31.1732 21.6778 0.498469
1 24.9297 18.5815 6.34676
1 25.8075 20.1556 -1.91631
1 26.3003 19.3157 4.34759
1 26.8518 19.0358 3.03419
1 24.0266 15.0749 0.367646
1 22.5283 18.6874 4.30853
1 20.9065 21.1447 3.92946
1 24.9975 18.7971 4.87592
1 26.8112 20.3257 6.65227
1 24.6855 15.8386 -0.780592
1 23.4034 19.4858 1.87976
1 31.0383 18.3908 0.978485
1 21.5288 17.8847 3.61514
1 27.1084 20.2049 5.27433
1 22.0954 16.0725 7.35804
1 30.5879 17.1435 1.57365
1 26.4538 20.4542 -0.661511
1 29.2156 17.0091 1.9979
1 19.772 15.3352 6.81605
1 27.8459 20.9073 -0.554379
1 33.4348 17.4663 0.643904
1 31.5521 16.0669 1.6195
1 32.0186 16.645 5.16834
1 28.6982 20.6797 3.27863
1 32.9462 16.18 1.11701
1 38.717 19.6415 9.39398
1 30.3234 20.9486 1.32065
1 33.3024 15.5464 8.33019
1 32.5463 18.5897 0.552425
1 38.4056 20.982 6.7216
1 28.2193 16.3566 1.14597
1 35.5198 18.8152 0.201696
1 32.4251 18.9307 6.05578
1 30.0001 19.5477 0.9844
1 31.0072 15.8055 4.64043
1 38.1616 21.6752 7.99362
1 33.7305 15.0099 0.849009
1 33.0549 14.2267 7.73766
1 28.7034 19.2301 1.29175
1 31.2408 14.6194 3.77596
1 38.0777 20.9472 9.24736
1 35.1577 14.949 1.0006
1 33.001 19.8318 -0.158833
1 34.8407 17.6023 0.298889
1 32.0437 14.109 6.71806
1 31.9146 13.4067 4.30796
1 32.1298 13.2093 5.69399
1 35.8575 15.6704 2.075
1 33.4515 21.019 0.533607
1 35.4158 15.8206 3.38234
1 26.1096 18.752 8.62373
1 34.7832 21.0315 1.33595
1 0.628746 26.2118 4.98403
1 2.15061 25.6194 -1.25965
1 3.0457 28.0466 4.1734
1 -0.372145 29.8066 7.9167
1 3.00056 26.6658 3.97602
1 7.49659 26.9158 7.63182
1 -0.809536 25.7275 0.877471
1 0.878455 23.1715 7.80155
1 2.72067 28.9807 3.09217
1 8.09569 30.5772 4.77924
1 0.894217 23.9591 5.42101
1 5.77151 27.8133 -0.0153459
1 7.62181 31.5064 9.90631
1 -0.24054 26.0897 2.20586
1 7.61382 26.2768 3.69936
1 7.25082 26.9018 2.45705
1 4.40813 26.5831 -1.8636
1 0.0497146 24.3247 8.23564
1 0.695366 30.1872 4.12186
1 0.18024 25.1668 5.88578
1 3.22192 27.8906 6.72572
1 3.48697 25.4311 -1.74078
1 1.93226 30.2307 3.31235
1 4.51832 27.6368 -0.864049
1 -0.173345 25.3304 7.22578
1 3.48277 28.5693 5.44844
1 -0.365123 24.5081 9.58498
1 5.28354 23.4898 -1.72197
1 2.25893 31.4763 2.56012
1 3.94238 24.0773 -2.07576
1 -3.3203 24.3373 8.82642
1 3.65923 31.8976 2.2925
1 8.36564 24.9961 3.67215
1 9.67992 23.6731 -2.67718
1 11.9889 23.1462 2.43516
1 11.2264 31.9133 3.52533
1 8.65925 24.5406 -0.197657
1 15.8489 27.6673 6.81792
1 6.81531 26.8882 -0.0178159
1 11.2703 18.4418 9.39685
1 8.78999 24.4734 2.34915
1 16.4604 27.7692 2.55935
1 7.56507 22.0778 0.749548
1 12.0418 23.9248 -2.04996
1 13.356 29.0314 5.85137
1 7.42545 26.2778 1.16886
1 14.4738 28.6522 4.88367
1 16.2165 26.392 1.89498
1 10.2147 24.5276 -0.46907
1 8.72335 24.3482 4.86062
1 11.9523 32.72 2.43881
1 9.43761 23.1855 2.27645
1 10.6658 23.0415 3.02217
1 10.6614 24.0105 -1.72624
1 8.2767 25.0854 1.11282
1 14.3289 22.4343 2.02343
1 8.75752 21.9613 1.56096
1 15.6607 28.0807 5.41759
1 8.26123 24.9047 6.13302
1 15.1165 23.7012 1.62464
1 12.6049 32.131 1.27727
1 13.1662 22.5072 2.91474
1 7.75943 26.2699 6.24751
1 12.9076 33.0272 0.138132
1 16.4266 23.9075 2.24221
1 20.0772 22.818 -2.22136
1 24.2302 32.6733 0.472154
1 14.9583 26.0982 1.22476
1 24.2075 24.8034 0.105962
1 21.7924 25.4458 5.48683
1 13.1798 23.8832 -1.05801
1 19.1975 21.8462 8.08835
1 17.0284 25.2286 2.36837
1 22.3932 28.6637 0.0566069
1 13.8919 20.8934 4.67254
1 22.0965 25.0365 -1.79328
1 19.7727 29.0156 12.4822
1 13.247 24.6275 0.274327
1 23.5405 31.3793 0.532728
1 22.2153 31.1699 0.0280713
1 23.1773 23.7881 0.0502817
1 18.2898 22.0507 6.96935
1 14.4359 24.781 1.06388
1 16.0172 21.9913 5.81569
1 23.0678 25.1927 6.04396
1 22.2486 21.4254 0.84541
1 18.4044 25.4147 2.89598
1 22.1531 23.8559 -0.931767
1 15.3127 20.9163 5.01775
1 19.1125 29.6175 8.12122
1 15.7533 23.4347 5.52362
1 23.2452 22.6439 0.936297
1 19.0782 26.6424 3.16721
1 21.0634 20.2705 2.68721
1 14.8947 26.7194 7.47981
1 19.1905 27.7089 2.21143
1 24.9177 23.4853 6.88912
1 28.3051 21.9059 0.391193
1 26.1071 24.852 3.11509
1 23.7866 28.5981 -0.0657931
1 25.468 24.5324 0.763655
1 28.0942 25.7081 7.69017
1 22.9886 26.1325 -1.6216
1 25.9491 24.025 7.66989
1 25.9589 25.4162 1.87772
1 28.3747 27.456 5.84925
1 22.586 19.1316 6.87285
1 31.3053 24.795 2.91993
1 25.5337 29.1513 8.43572
1 23.9287 26.0548 -0.562427
1 25.9505 27.8556 6.27141
1 27.1577 28.044 5.46291
1 26.2628 23.4854 0.282155
1 21.2735 22.5909 7.14867
1 24.5422 27.3507 -0.135064
1 27.1816 29.1195 4.4061
1 29.3761 27.7553 8.09301
1 27.5516 23.0817 0.83841
1 26.4464 26.7796 1.55214
1 31.4886 23.3769 2.79832
1 22.5167 20.0851 7.96783
1 28.6584 28.6395 9.17303
1 22.5332 23.219 7.65209
1 30.5661 22.4072 3.41949
1 25.9782 27.3812 0.300011
1 29.9264 21.333 2.72478
1 23.5633 23.9545 6.83708
1 26.9149 27.9437 -0.607638
1 36.4717 23.0643 4.17808
1 35.688 19.8362 1.28825
1 37.3922 22.8405 5.29276
1 33.4636 27.8386 0.338794
1 36.2461 22.0554 3.18867
1 35.4442 25.3225 10.0968
1 31.9511 25.7939 2.0415
1 31.0856 20.2176 10.9166
1 32.4877 22.0243 0.847105
1 38.4268 28.5481 6.10844
1 28.0403 19.6661 2.50935
1 37.4539 25.5408 0.7352
1 33.9101 27.3131 9.90653
1 32.1849 27.2554 2.4484
1 37.2186 23.621 6.59924
1 37.2012 29.0582 6.845
1 37.1583 20.9871 3.07434
1 31.6405 17.7276 5.89908
1 33.0498 28.1773 1.70892
1 32.7015 22.8448 2.02065
1 37.492 22.999 7.94662
1 36.9042 19.8814 2.04263
1 33.0773 26.6994 -0.352885
1 37.854 26.5101 -0.259417
1 35.0621 22.1112 2.34553
1 36.6287 28.3565 7.94331
1 35.5135 24.2427 4.25238
1 38.0585 20.7749 4.17847
1 33.5753 29.3837 2.38187
1 38.0308 21.5267 5.34573
1 34.0326 23.1191 2.5227
1 34.723 30.0721 1.97576
1 2.86511 31.6033 5.57993
1 4.7999 31.0577 1.81343
1 5.13651 32.7566 5.47472
1 -0.066225 37.5497 3.0294
1 4.10533 32.1232 6.21312
1 7.69091 35.2601 7.19948
1 -0.672722 33.6089 0.416983
1 3.25233 31.419 9.83322
1 -1.92114 40.6611 -3.72187
1 3.53264 36.8215 1.07978
1 -0.441183 29.7446 6.45638
1 8.61235 37.005 0.915794
1 7.70318 36.5789 7.765
1 -1.12771 35.0338 0.386348
1 5.83195 35.889 5.60947
1 4.72664 35.6301 4.56616
1 6.38313 33.4244 6.07772
1 3.13463 31.4664 8.36516
1 0.0830035 36.3286 2.32882
1 1.87942 30.8973 6.2595
1 6.09463 37.2039 6.00155
1 5.81463 28.8668 0.922639
1 -0.305042 36.1658 0.924796
1 4.66309 29.8967 1.07101
1 0.701579 30.2444 5.57663
1 6.96931 37.5169 7.07634
1 2.0257 30.8904 7.71715
1 3.42009 29.6535 0.211226
1 4.73785 37.3289 -1.05153
1 3.38463 28.5932 -0.756699
1 4.31466 32.1598 10.5208
1 4.76796 36.8487 0.342644
1 13.6229 36.7138 3.40752
1 12.4582 29.7841 2.06578
1 13.0923 37.3822 2.19048
1 3.47169 36.3378 2.4255
1 15.0307 36.9255 3.79419
1 14.9169 33.7428 8.02615
1 7.2755 36.9074 0.368235
1 7.46775 27.0407 5.01647
1 9.78898 36.7775 0.16955
1 15.7092 39.8331 2.67328
1 9.87733 32.0797 3.79802
1 11.9399 34.1961 2.55083
1 13.2804 35.8497 9.55586
1 6.02963 36.7801 1.08829
1 13.48 38.7043 1.88246
1 14.835 39.1686 1.58974
1 12.7259 35.8787 4.27521
1 11.0289 31.3722 6.70186
1 4.71523 36.1792 3.1949
1 9.27353 31.4473 4.89875
1 15.4474 35.0206 8.47539
1 13.1924 30.8463 1.36286
1 6.00068 36.3643 2.4646
1 11.8176 34.878 3.82659
1 9.75089 31.8035 6.18256
1 14.785 35.9663 9.35194
1 11.6525 31.832 7.95659
1 14.61 30.5755 0.931376
1 11.199 37.2185 0.559891
1 15.6681 29.9543 1.78289
1 6.64247 34.8384 6.19404
1 12.1491 36.5892 1.42061
1 16.912 36.7279 0.378902
1 18.9533 27.6171 0.790633
1 17.8493 37.3278 4.45289
1 16.9574 39.2239 3.25221
1 18.1857 37.2157 0.840524
1 21.1932 36.8373 5.79451
1 12.2485 35.0598 1.41699
1 16.4812 30.2714 9.09865
1 15.8766 36.5088 1.45991
1 22.7972 37.8752 3.44732
1 15.4891 28.8315 2.53211
1 27.439 35.9861 -0.924555
1 19.3614 38.0716 8.37894
1 12.6005 34.4015 0.152249
1 18.9784 36.5622 4.56311
1 22.439 38.6017 4.60977
1 19.3091 37.2519 -0.14638
1 13.0289 28.7312 2.93861
1 17.2628 37.776 3.18188
1 19.0747 32.106 6.13876
1 19.7763 36.3868 5.80778
1 19.4919 28.5633 -0.157192
1 16.0466 37.037 2.85569
1 19.0141 37.0672 -1.57588
1 14.3516 28.7268 3.44836
1 18.5643 39.0394 8.92398
1 19.5324 33.4379 6.28023
1 20.1893 29.7695 0.139863
1 18.4635 37.659 2.18144
1 21.6086 29.8739 0.0468315
1 17.013 31.5414 9.49912
1 19.7729 38.0682 2.54954
1 23.3187 35.5692 4.36977
1 27.3292 27.5957 2.40385
1 23.3133 35.7288 5.79097
1 22.3094 38.2654 2.15074
1 23.7188 34.2973 3.94762
1 22.8612 35.1832 8.8544
1 26.5022 35.9796 0.311108
1 25.2941 28.9213 7.07745
1 25.1204 35.018 2.0539
1 29.7861 40.3769 7.20478
1 24.5447 29.9147 6.3626
1 26.2358 32.3095 1.59172
1 22.2497 37.7568 10.1295
1 25.9972 34.7781 0.968949
1 22.1712 36.1125 6.51117
1 31.0075 40.5587 6.52655
1 24.7492 33.9637 2.93732
1 25.2356 31.6265 3.83761
1 20.9556 38.0489 1.68662
1 24.6573 32.1266 7.5871
1 22.1744 36.289 8.04261
1 26.9083 28.869 2.98678
1 20.6149 37.6443 0.311207
1 25.2769 32.5824 2.7271
1 24.8572 31.3201 6.3791
1 21.7942 37.5238 8.6625
1 23.9721 33.4061 7.39532
1 26.3604 29.8749 2.19684
1 24.6064 36.4179 2.39385
1 27.0507 31.0792 1.64941
1 21.4219 38.1933 5.58542
1 23.603 36.6041 3.46904
1 40.2553 28.9013 -0.211486
1 35.6889 29.5742 0.947427
1 35.445 32.5735 7.14464
1 32.6327 40.0616 4.51649
1 39.0542 29.1764 1.92101
1 37.9238 33.5856 7.71507
1 26.6695 33.5143 0.774076
1 35.2627 28.6635 8.39392
1 37.6025 31.2228 5.57395
1 39.4586 40.4771 3.03041
1 28.704 26.9262 7.16426
1 39.0754 29.3273 0.4561
1 34.5699 36.1829 6.82033
1 27.6744 33.2969 -0.339944
1 36.7235 33.6066 6.84406
1 38.4865 39.723 2.35106
1 40.1112 28.6433 2.74531
1 34.1868 27.7525 7.61497
1 31.3064 39.946 5.25754
1 36.935 30.5526 6.69267
1 35.8513 35.5386 8.88973
1 36.7115 30.3747 0.365468
1 38.5824 30.6385 4.79896
1 37.9093 29.8768 -0.295869
1 33.355 27.082 8.64531
1 35.8077 36.0939 7.51174
1 35.801 31.1117 7.36467
1 40.156 28.6688 4.22318
1 35.2003 36.2488 -0.806686
1 39.0474 29.2232 5.04375
1 34.0305 33.0819 7.16967
1 36.1331 36.4363 0.269461
1 1.97869 3.55153 14.5622
1 3.52934 -1.50719 9.83737
1 2.88155 4.23613 13.5572
1 2.55163 8.00399 12.6942
1 2.9413 3.86542 12.1482
1 7.85676 -0.868131 8.19488
1 4.57926 4.95301 8.71026
1 1.52046 2.12647 14.2211
1 3.59311 4.70708 11.1132
1 7.80312 10.0717 13.4868
1 2.93782 1.94584 10.5951
1 5.44772 -0.269633 7.77099
1 3.58726 9.69343 14.3263
1 4.58402 6.3457 8.83359
1 5.6416 6.98936 13.7397
1 7.95743 1.40506 16.8349
1 6.12995 -1.73017 9.76798
1 1.57078 1.83015 12.8497
1 3.43881 6.94934 12.4559
1 1.77398 4.02917 15.9647
1 3.93723 5.17455 14.0572
1 4.74117 -2.27508 9.90145
1 3.55753 6.19005 11.1548
1 6.48581 -0.880262 8.68468
1 2.57422 2.48678 11.8612
1 4.34431 6.38364 13.4679
1 1.50696 5.32274 16.1085
1 8.91335 -1.15978 9.20901
1 3.79464 7.01743 9.89928
1 6.83729 -2.91927 11.9921
1 1.79548 6.15139 15.0045
1 3.0463 8.20913 9.70183
1 16.1513 5.7691 14.2193
1 12.7332 -0.385274 9.70801
1 13.7699 5.20253 13.4069
1 5.82114 8.4974 13.8877
1 12.6324 4.28229 13.2032
1 17.122 2.22685 11.6981
1 12.0311 0.155306 7.30074
1 13.9122 0.157389 14.6073
1 15.1776 4.76783 13.6562
1 14.9571 9.3855 10.4455
1 7.15191 -2.04672 10.7901
1 14.2476 1.91395 6.90655
1 15.6947 7.00478 14.9278
1 4.84613 2.32471 5.89707
1 12.8334 2.31247 14.612
1 15.5535 9.03504 13.3738
1 12.7176 2.82013 13.2142
1 12.7229 0.891682 14.8476
1 4.80249 2.82666 7.29241
1 11.4858 0.293562 15.3705
1 13.376 3.15979 15.651
1 13.0015 0.339214 8.34866
1 5.09528 4.29377 7.55034
1 14.1673 1.28714 8.16285
1 8.5149 -1.90351 10.34
1 16.1925 8.22812 14.4009
1 10.288 1.06294 15.6515
1 11.4544 2.27592 12.5168
1 6.19824 6.40838 6.78661
1 15.3157 -0.690713 10.3642
1 9.2378 0.688054 16.63
1 5.58958 5.19256 6.42362
1 18.5506 3.82621 10.3168
1 17.723 -0.687062 8.38018
1 17.9965 5.04677 11.0007
1 16.2803 9.94064 10.7274
1 20.8951 0.881046 8.56726
1 22.5319 3.0098 13.2993
1 19.3793 5.16172 7.1087
1 17.3353 0.419368 9.19752
1 15.047 1.52139 9.28809
1 21.0162 6.26331 13.6429
1 13.7355 -0.813517 10.6011
1 21.6402 2.1075 8.72796
1 18.5057 6.7897 13.8079
1 16.3433 3.73277 9.60389
1 18.8288 5.87666 11.8451
1 21.1088 6.7063 12.2517
1 20.4667 0.153254 9.73688
1 18.3229 1.4468 9.65018
1 15.4231 9.11155 6.64808
1 18.0631 2.46647 10.6211
1 22.9229 4.42209 13.4967
1 18.8606 -1.50864 8.67607
1 15.1574 2.84495 9.92686
1 19.9819 -1.16805 9.52653
1 14.6632 1.27706 12.5115
1 22.1747 5.39304 14.2256
1 13.9953 2.46241 12.2637
1 20.8786 0.744742 11.0756
1 20.1679 4.44021 7.98539
1 20.8439 -0.115876 12.2095
1 14.181 3.22775 10.9963
1 16.5191 4.44108 8.38639
1 26.0092 1.30104 11.8987
1 29.1041 -1.34206 9.20669
1 23.627 4.35154 15.8767
1 22.3821 7.17646 11.7626
1 27.9543 2.19175 10.4855
1 27.5807 2.88261 16.7916
1 21.6067 2.88716 9.91594
1 25.7462 1.51006 15.7595
1 26.9736 2.37171 11.5731
1 28.369 4.17775 12.4508
1 22.0173 -0.628558 12.8669
1 29.6199 3.25528 8.91982
1 28.8545 4.89568 13.7215
1 21.2049 2.16125 11.1767
1 28.9139 3.17719 10.2294
1 28.9249 4.05268 14.9466
1 27.9613 0.88627 9.6943
1 26.1757 1.06825 14.4073
1 26.2337 3.59472 13.5785
1 25.3812 1.0892 13.2102
1 29.3503 7.20024 17.0842
1 29.1706 0.135874 9.26282
1 26.4716 4.14145 14.8814
1 30.151 2.14628 8.26362
1 23.3841 -0.149024 12.611
1 27.6578 3.84279 15.6163
1 23.9931 0.948413 13.3241
1 30.3292 0.934307 8.96869
1 21.2552 2.83806 12.4696
1 31.6822 0.438074 9.22154
1 23.1611 1.90538 14.0362
1 22.9412 4.87647 10.6635
1 32.0373 -1.47173 13.6346
1 34.4714 4.34335 7.8264
1 37.7529 6.13897 7.00887
1 30.2529 5.2161 11.0399
1 35.3003 5.26217 7.19662
1 37.4333 6.97407 16.0727
1 31.0986 5.14478 9.89149
1 32.9565 1.48737 16.5989
1 39.0703 6.37514 7.73759
1 43.9381 13.7853 14.9628
1 32.202 0.20245 10.5817
1 37.4476 6.71166 5.72782
1 33.4025 10.4422 12.7473
1 31.7844 6.28965 9.46514
1 36.6203 5.54035 7.77148
1 43.2694 13.8123 13.7217
1 34.8128 6.12193 6.02622
1 32.5677 0.526744 15.5378
1 30.1874 7.46506 8.0195
1 31.8696 -0.0373484 13.1981
1 38.0267 8.25939 15.5865
1 33.708 5.54451 5.2595
1 29.2247 4.18173 11.2714
1 36.0352 6.52646 5.0899
1 31.4218 0.33085 11.8256
1 38.6277 9.23243 16.4183
1 31.8985 0.944982 14.3209
1 38.4409 -1.46503 12.6623
1 32.9455 6.38486 8.49475
1 38.5693 -2.36996 11.5627
1 31.2818 3.36037 15.2151
1 31.0659 8.681 8.13415
1 0.00381071 9.90758 12.6269
1 5.47079 7.14174 7.87151
1 3.03225 11.6041 11.5936
1 2.2039 13.807 12.3399
1 3.91943 9.15216 7.48252
1 7.70322 12.493 14.3242
1 -0.100914 13.0781 6.01636
1 3.12121 9.37646 12.9896
1 4.32833 11.5602 11.0335
1 7.74589 15.4476 14.4753
1 1.23222 7.68054 13.0834
1 5.35723 10.3853 5.50603
1 5.08375 14.0639 14.7562
1 -0.976819 13.0404 7.30704
1 4.81684 13.1979 13.6177
1 5.76634 13.0017 12.5903
1 0.396648 10.5793 6.27464
1 2.42448 10.5049 12.2209
1 2.37189 12.8534 11.2894
1 1.11502 10.914 12.9279
1 7.28267 13.0757 13.0297
1 5.25347 8.61087 7.62261
1 -2.24436 12.3325 7.36147
1 6.41581 9.50718 7.43663
1 0.179294 8.48176 12.5068
1 7.15075 13.5153 16.1678
1 1.0173 11.8635 14.0005
1 6.60639 8.90146 11.4881
1 1.80128 13.1597 9.90168
1 5.05673 0.906226 5.59266
1 -0.0599403 12.8126 14.1502
1 1.62305 14.5199 9.36311
1 13.1637 8.34672 13.8408
1 10.8364 7.46157 8.29821
1 9.64451 11.1867 13.4658
1 9.39901 13.0509 9.01961
1 13.8164 11.2223 12.6161
1 12.2007 10.9513 14.5509
1 9.09914 10.6615 9.85944
1 10.6388 10.084 17.3303
1 10.3011 12.0105 12.4938
1 15.7304 15.5952 14.2863
1 6.73442 9.18982 12.9708
1 13.6341 12.7615 7.7254
1 13.1691 16.3822 13.187
1 9.21648 12.0452 10.1094
1 12.7725 8.43486 10.7475
1 14.5429 14.6427 14.0143
1 14.2062 8.81557 12.903
1 6.73612 9.90703 10.4335
1 10.581 13.8638 9.16841
1 8.96499 11.8123 14.5534
1 13.2406 14.836 14.6422
1 11.8531 8.4452 8.30416
1 7.84885 9.95963 9.49529
1 13.0087 8.38054 9.25488
1 9.20543 8.08656 17.9289
1 11.2485 13.6599 14.2777
1 10.0658 8.79887 17.0018
1 14.295 9.12928 9.04758
1 10.9237 14.3533 10.5788
1 13.9626 8.90283 11.4223
1 9.73871 11.0606 17.9195
1 11.4689 14.2168 7.92073
1 17.3814 9.02969 11.0628
1 20.0047 6.58337 11.3715
1 17.3771 11.9705 12.8491
1 13.6835 12.6497 12.5705
1 19.5096 10.3592 11.3491
1 20.0902 12.3143 14.3031
1 14.759 13.5276 13.0513
1 19.936 6.66897 15.8727
1 17.3851 12.1709 11.4733
1 20.7183 16.6776 13.4459
1 19.3264 8.42069 9.65601
1 24.0604 13.438 9.3624
1 20.3291 14.2205 16.3617
1 15.3262 14.8376 8.56023
1 18.7121 9.33741 10.5757
1 19.3401 14.467 15.2591
1 20.5099 11.2023 10.8257
1 18.1172 7.98397 13.2809
1 16.0554 14.3316 11.0237
1 17.1959 8.07988 12.1291
1 19.0095 13.2891 14.4461
1 20.1287 7.20615 10.035
1 16.5321 11.3487 10.5836
1 19.0464 13.0037 9.61812
1 13.0598 8.78395 15.2495
1 18.8648 15.761 14.8985
1 17.6817 13.0079 13.8902
1 22.7171 12.8911 9.79506
1 16.5318 14.8534 7.75143
1 23.2597 6.32887 10.9151
1 12.4422 9.99518 15.5585
1 15.4055 14.0192 9.74779
1 24.4551 12.2944 15.8025
1 26.0502 9.97928 10.3108
1 23.4295 11.8461 16.816
1 21.3013 14.9521 11.4271
1 25.6091 10.2685 12.8623
1 26.8178 13.0028 15.1254
1 21.8145 11.594 7.90467
1 25.8812 5.4324 15.2061
1 26.1745 13.4219 8.02285
1 27.3367 15.8566 15.0376
1 22.899 8.37249 12.3576
1 26.6807 9.00947 8.01955
1 25.468 13.3455 11.5069
1 21.5244 12.64 8.89377
1 25.2392 14.7588 11.3802
1 29.2788 11.7183 10.5167
1 25.2031 9.98159 11.4524
1 23.794 10.0703 15.1071
1 22.6975 14.5906 11.7798
1 24.4416 11.3701 14.6518
1 25.3619 11.5702 13.4953
1 25.6951 9.41903 8.99846
1 23.7329 16.6468 10.6252
1 28.1368 13.3433 8.87142
1 23.1995 10.3089 16.4529
1 27.4745 16.5207 13.7769
1 21.3635 12.4498 14.8764
1 27.1937 3.37324 12.537
1 24.8142 13.0222 8.14118
1 32.7797 10.4132 11.4233
1 22.3448 9.36442 17.1348
1 23.8542 15.2964 11.1632
1 32.1843 12.4937 10.0687
1 33.556 10.932 8.58992
1 32.4609 15.5817 15.4857
1 27.0656 15.5873 8.0945
1 32.9796 12.2491 8.88876
1 39.5974 14.0316 12.2427
1 29.2115 13.0123 9.90228
1 34.7793 10.076 12.9695
1 30.1568 14.0468 10.1889
1 36.7403 14.4749 9.65323
1 31.7909 11.3963 10.9701
1 40.0642 15.128 5.18417
1 36.6545 12.7522 14.4548
1 28.1238 14.6112 8.12732
1 36.7746 13.5494 12.0312
1 37.4607 14.0696 10.8487
1 41.123 14.1 12.3819
1 30.0281 10.6438 12.6422
1 29.7182 15.4735 10.0782
1 31.6262 13.7785 10.3822
1 38.8133 13.3901 13.4022
1 38.3105 15.7682 6.89033
1 32.542 14.884 10.7319
1 38.7353 15.4862 5.46395
1 30.3449 11.2352 11.3442
1 37.4107 13.1587 13.2706
1 28.5476 7.7733 16.0041
1 41.8219 13.6259 13.5338
1 32.9013 15.8745 9.81242
1 40.9593 13.1512 14.6439
1 26.7048 12.1655 13.9172
1 33.1682 17.179 10.2703
1 2.31205 17.5825 11.4199
1 4.95744 15.5955 10.1267
1 1.99728 16.8706 10.1206
1 0.593849 21.5875 12.6367
1 6.80895 15.0432 11.538
1 7.87124 17.8823 11.4686
1 1.11531 16.988 7.7745
1 0.643781 17.166 15.2091
1 3.75801 19.6685 9.40882
1 6.87319 22.1082 12.3673
1 1.1388 14.8476 12.383
1 7.21553 15.159 9.10029
1 4.00033 22.995 15.2723
1 1.06546 17.433 9.14757
1 3.71804 19.1041 14.1516
1 8.6213 20.4764 13.073
1 2.39862 20.0164 9.62431
1 0.137758 16.5441 13.9375
1 1.02105 21.3587 11.2659
1 1.78985 18.8894 11.8285
1 8.46701 18.8798 10.4977
1 5.33739 12.5759 11.2325
1 1.74591 20.0826 10.9198
1 6.21484 14.7812 10.1047
1 0.39043 15.2037 13.5722
1 3.89113 22.0002 16.2929
1 1.35128 19.1331 13.1863
1 5.88913 13.2754 10.0922
1 0.51357 18.6878 9.33155