14
Atoms. Timestep: 0
1 4.186 5.118 6.729
1 6.996 7.764 6.781
1 4.206 7.949 9.427
1 5.88784 7.89563 8.02959
1 4.85683 6.35043 7.50516
1 6.32224 6.36662 6.6781
1 8.918 6.811 4.939
1 6.29633 5.93852 8.46611
1 8.08 7.716 5.752
1 6.869 5.099 9.569
1 7.66243 9.44803 5.51766
1 8.3189 8.79399 6.59068
1 8.939 9.626 7.653
1 6.245 9.653 4.817
14
Atoms. Timestep: 50
1 3.73998 5.93588 7.43869
1 7.22273 7.27073 6.48367
1 4.1074 7.88459 9.37609
1 5.51522 7.13452 6.54437
1 5.20076 6.57891 7.69887
1 7.71966 6.53454 7.82312
1 8.8653 6.35994 5.10938
1 6.42403 5.4804 8.06606
1 7.51688 7.14515 5.02705
1 6.39417 4.64557 9.12276
1 7.01991 10.2043 5.97808
1 7.53284 8.84391 6.93181
1 8.75019 9.49819 7.42603
1 6.71296 10.0492 4.40943
14
Atoms. Timestep: 100
1 4.29066 6.21476 9.05439
1 7.0009 6.80466 5.93635
1 3.94223 7.85227 8.92587
1 5.25821 6.70535 5.62525
1 4.60863 5.93564 6.98288
1 7.05407 6.36951 7.50581
1 9.13003 5.64307 4.83849
1 5.78511 5.56067 8.1068
1 7.99609 6.60364 5.04181
1 6.26429 4.29414 8.67539
1 7.0354 9.74434 5.14764
1 6.81399 8.40758 6.20751
1 7.72007 9.18023 7.05837
1 6.3981 11.1423 5.04222
14
Atoms. Timestep: 150
1 5.50424 7.02427 8.68742
1 6.92906 7.23267 5.22866
1 4.18544 7.62225 9.65805
1 5.58162 6.75313 5.36534
1 5.13711 5.91808 6.48414
1 7.57464 6.38091 7.76523
1 8.6206 5.4126 6.01795
1 5.83339 5.77114 7.80298
1 8.02528 6.26778 5.06585
1 5.47009 4.26616 8.49926
1 6.84242 9.86808 5.2724
1 6.96644 8.39086 5.90532
1 6.59082 8.56029 7.24593
1 6.29858 11.2277 5.40169
14
Atoms. Timestep: 200
1 5.12088 7.38652 8.03272
1 6.66174 7.20594 4.86255
1 4.65664 6.62119 9.25057
1 5.32836 6.27846 4.86228
1 4.91695 5.32189 6.07146
1 7.1731 4.84352 7.03519
1 8.17981 5.50364 6.0218
1 5.61001 4.56713 7.28575
1 7.93634 6.32119 4.94065
1 4.74306 5.02067 8.93755
1 6.5709 9.74053 4.46394
1 6.48895 8.54982 5.32415
1 5.74371 8.52061 7.98021
1 6.02485 10.8176 5.10397
14
Atoms. Timestep: 250
1 5.15374 7.88467 7.98417
1 6.2204 6.83199 5.03233
1 5.39964 6.48777 8.68939
1 4.98839 5.90877 4.58475
1 4.84301 4.68376 5.04417
1 6.71484 3.55795 6.68517
1 7.7076 4.77103 6.06255
1 5.45011 4.4932 6.58399
1 7.46531 5.95066 5.11945
1 4.92506 5.30913 7.92418
1 5.46891 9.21452 4.22654
1 5.96876 8.30151 5.25158
1 4.68545 8.9159 8.77431
1 6.06327 10.6662 4.27419
14
Atoms. Timestep: 300
1 5.56099 8.04877 8.19236
1 6.27944 6.7047 5.11299
1 5.91629 6.65327 7.86688
1 5.28407 5.87716 4.60941
1 4.70986 4.77933 5.34715
1 6.28631 3.88131 6.47769
1 7.73009 4.8512 6.14834
1 5.08083 4.72008 6.56781
1 7.51056 6.15867 5.49509
1 4.90928 5.55012 7.67036
1 5.41133 9.12388 4.44947
1 5.98534 8.23851 5.36649
1 4.22142 8.05691 9.18277
1 6.09791 10.269 3.68205
14
Atoms. Timestep: 350
1 4.99296 7.36031 8.59975
1 6.06784 6.39962 4.50273
1 5.06583 6.45069 7.28896
1 4.71868 5.59089 4.12046
1 4.10409 4.36045 4.94829
1 6.04878 3.59239 5.90003
1 7.19061 4.55669 5.80503
1 4.53832 4.04882 6.19407
1 7.24914 5.62676 4.92628
1 4.29461 5.02291 7.27638
1 5.21146 8.93546 3.98092
1 6.14189 7.84577 4.60956
1 3.63961 7.66087 9.13822
1 5.36296 9.6921 2.77674
14
Atoms. Timestep: 400
1 4.06498 6.54661 8.75503
1 5.94733 5.97446 3.77712
1 4.21222 6.16567 7.3872
1 4.42641 5.40428 3.71655
1 3.8039 4.34169 4.49436
1 5.71245 3.48277 5.774
1 6.76948 3.79991 4.83345
1 4.27457 3.88933 5.91577
1 6.979 5.15864 4.23695
1 3.83614 4.77073 7.08343
1 4.89196 8.44222 3.36973
1 6.04427 7.44662 3.73231
1 3.11321 7.32759 9.23694
1 4.79769 9.172 2.23263
14
Atoms. Timestep: 450
1 3.15317 5.79058 8.88961
1 5.56643 5.44021 2.87405
1 3.42754 5.60342 7.39926
1 3.99683 5.04581 3.10411
1 3.3864 4.29498 4.22555
1 5.2381 3.1553 5.41617
1 6.34494 3.52135 4.41101
1 4.00463 3.93321 5.46525
1 6.57248 4.4899 3.26263
1 3.33942 4.21493 6.77834
1 4.76232 7.83046 2.73038
1 5.8521 6.90682 2.53214
1 2.35399 6.93537 9.34262
1 4.21091 8.71204 1.71782
14
Atoms. Timestep: 500
1 2.42118 5.23986 8.7846
1 5.12341 5.0342 2.35127
1 2.84652 5.33559 7.40875
1 3.75983 4.81804 2.80075
1 3.21457 4.4173 4.23726
1 5.04317 3.25957 5.1047
1 6.20231 3.67053 4.22583
1 3.93832 4.03769 5.39023
1 6.13131 4.17471 2.85631
1 3.39269 4.10517 6.71772
1 5.10013 7.62555 2.27537
1 5.61681 6.35525 1.85732
1 2.13037 6.44981 9.50363
1 4.01577 8.38084 1.49389
14
Atoms. Timestep: 550
1 1.96724 5.01693 8.50704
1 4.91979 4.9557 2.28466
1 2.65716 5.00178 7.26462
1 3.55707 4.70895 2.82995
1 3.13336 4.6978 4.32357
1 5.20302 3.43264 5.18868
1 6.14735 3.50224 4.02279
1 3.83594 4.07328 5.418
1 5.84571 3.86848 2.62269
1 3.10947 3.92622 6.65625
1 5.21127 7.49905 1.524
1 5.21725 6.02597 1.38771
1 2.0283 6.02491 9.43631
1 4.01538 8.27515 1.53717
14
Atoms. Timestep: 600
1 1.65577 4.74466 8.45486
1 4.60639 4.67855 2.0796
1 2.2592 4.88035 7.25014
1 3.3799 4.77569 2.88038
1 3.35271 5.09833 4.30877
1 5.09039 3.23912 4.88511
1 6.05922 3.64256 3.83986
1 3.81157 4.08635 5.29703
1 5.77239 3.87836 2.52288
1 2.95043 3.78562 6.50852
1 5.11344 7.08109 1.08939
1 4.96546 5.67014 0.931671
1 1.79721 5.69015 9.51795
1 4.08814 7.99199 1.56942
14
Atoms. Timestep: 650
1 1.37549 4.44402 8.38077
1 4.58276 4.68979 1.97799
1 1.98723 4.6154 7.01426
1 3.31919 5.01955 2.80214
1 3.14377 5.00674 4.23443
1 4.90896 3.26251 4.82976
1 5.79672 3.43488 3.75155
1 3.77117 4.0872 5.18077
1 5.50683 3.71921 2.37827
1 3.19278 3.93201 6.55142
1 4.7309 6.83633 0.45945
1 4.83429 5.34844 0.675624
1 1.5223 5.32209 9.5464
1 4.30298 7.77608 1.50332
14
Atoms. Timestep: 700
1 1.40642 4.34714 8.21361
1 4.53025 4.728 2.13317
1 1.9818 4.68141 6.97611
1 3.36632 5.00573 2.90098
1 3.47134 5.16917 4.27999
1 4.94044 3.26704 4.96745
1 5.84334 3.40478 3.84155
1 3.9059 4.16693 5.22526
1 5.37235 3.65418 2.51844
1 3.2739 4.18461 6.55999
1 4.33026 6.78387 0.51281
1 4.73395 5.37858 0.810729
1 1.50506 5.13036 9.43252
1 4.72483 7.96524 1.30783
14
Atoms. Timestep: 750
1 1.22251 4.2664 8.05229
1 4.40481 4.70862 2.07687
1 1.97522 4.6377 6.84487
1 3.36731 4.92678 2.95784
1 3.54468 5.20673 4.33497
1 4.93648 3.23536 4.96488
1 5.76611 3.2664 3.82009
1 3.9017 4.2061 5.27375
1 5.35574 3.64567 2.44888
1 3.35411 4.24602 6.58695
1 4.11463 6.72165 0.614042
1 4.48926 5.40856 0.796724
1 1.40406 4.93266 9.36364
1 4.93569 7.9013 0.955465
14
Atoms. Timestep: 800
1 0.967607 4.11122 7.99446
1 4.22745 4.51721 1.86004
1 1.82113 4.43466 6.84048
1 3.16827 4.95665 2.82167
1 3.40782 5.17896 4.24146
1 4.8051 3.15125 4.72118
1 5.61131 3.2588 3.55935
1 3.79307 4.09971 5.17249
1 5.08599 3.47626 2.22639
1 3.12806 3.9542 6.49576
1 3.99779 6.55614 0.41305
1 4.37841 5.17159 0.632747
1 1.06976 4.58952 9.33531
1 4.90144 7.66748 0.464627
14
Atoms. Timestep: 850
1 0.883049 3.96594 7.83656
1 4.13793 4.59919 1.90391
1 1.76463 4.40606 6.805
1 3.06599 5.07226 2.85172
1 3.18718 5.11472 4.29243
1 4.80774 3.05385 4.75334
1 5.54082 3.18728 3.46366
1 3.73464 3.97699 5.18583
1 4.91304 3.42295 2.19403
1 3.03704 3.77043 6.44842
1 3.94846 6.4663 0.117665
1 4.22824 5.1056 0.495054
1 1.00682 4.40798 9.20535
1 4.96082 7.53331 0.125304
14
Atoms. Timestep: 900
1 0.829366 3.93448 7.84258
1 4.03011 4.47688 1.84869
1 1.71759 4.40632 6.76938
1 3.15481 5.16138 2.87719
1 3.40186 5.19982 4.33941
1 4.79373 3.10488 4.73872
1 5.57234 3.20205 3.50627
1 3.72862 4.03754 5.13921
1 5.01321 3.46312 2.18568
1 2.97463 3.76234 6.36744
1 3.93362 6.51792 0.322054
1 4.02192 5.08662 0.531514
1 0.979627 4.31119 9.22833
1 5.02958 7.38619 -0.0521643
14
Atoms. Timestep: 950
1 0.800599 3.9369 7.75379
1 3.98234 4.59042 1.8952
1 1.69727 4.35481 6.66507
1 3.10959 5.13542 2.96337
1 3.39043 5.175 4.39536
1 4.83325 3.09337 4.79955
1 5.55406 3.11424 3.57341
1 3.75651 4.01142 5.202
1 4.96933 3.47364 2.21922
1 2.9918 3.77241 6.41861
1 3.94051 6.5757 0.182941
1 3.87902 5.14986 0.548819
1 1.03372 4.23194 9.12309
1 5.10385 7.30974 -0.229267
14
Atoms. Timestep: 1000
1 0.741544 3.85352 7.73071
1 3.88668 4.56243 1.8867
1 1.60553 4.24384 6.64961
1 3.08699 5.20962 2.92304
1 3.4203 5.2223 4.35831
1 4.79315 3.12748 4.79431
1 5.46066 3.15554 3.50219
1 3.71245 3.99518 5.17701
1 4.83756 3.40975 2.19389
1 2.94356 3.70384 6.39507
1 3.94372 6.49815 0.154293
1 3.89727 5.09577 0.460403
1 1.00979 4.11295 9.15517
1 5.13615 7.21995 -0.413719
