14
Atoms. Timestep: 0
1 4.186 5.118 6.729
1 6.996 7.764 6.781
1 4.206 7.949 9.427
1 5.24292 7.14342 8.67006
1 5.036 5.961 7.593
1 6.13 6.982 7.595
1 8.918 6.811 4.939
1 5.89748 6.08068 9.35676
1 8.08 7.716 5.752
1 6.869 5.099 9.569
1 7.73271 9.87593 5.37658
1 8.087 8.788 6.785
1 8.939 9.626 7.653
1 6.245 9.653 4.817
14
Atoms. Timestep: 50
1 4.26229 5.53415 6.17782
1 7.22276 7.63755 6.72206
1 4.56113 7.95771 9.49276
1 5.94182 7.52612 8.6462
1 5.53877 5.84984 6.59655
1 6.164 7.12919 7.3758
1 8.6379 6.63658 5.19399
1 6.23109 6.32943 9.92676
1 7.45047 6.7017 5.64296
1 6.71243 4.98208 10.278
1 6.99796 9.98842 6.03635
1 7.71228 8.88078 6.80914
1 8.58281 9.52692 7.77376
1 6.74949 10.0662 4.55692
14
Atoms. Timestep: 100
1 3.88091 5.52545 5.13882
1 6.6737 6.88966 6.09822
1 4.56167 7.70916 8.97236
1 5.83273 6.93428 8.41963
1 4.25711 5.38895 6.39263
1 5.59441 5.96728 7.23082
1 8.61847 5.8549 4.07819
1 6.51729 6.03926 9.90556
1 7.93542 6.05695 5.30032
1 5.87728 5.01431 10.5279
1 5.88746 9.58788 5.29347
1 6.84387 8.53249 6.22505
1 7.57084 9.23319 7.48594
1 6.60652 10.5296 4.49351
14
Atoms. Timestep: 150
1 4.17344 5.35645 4.71879
1 6.92635 6.96106 6.2989
1 5.27233 8.03245 8.97262
1 5.67165 6.54444 8.53695
1 4.06386 5.81068 6.12777
1 5.5056 6.39659 6.9769
1 8.01938 5.95812 4.39581
1 6.1125 5.41931 9.63416
1 8.34667 6.45892 5.53097
1 6.54 5.77655 10.8426
1 6.39194 9.02457 5.22724
1 6.63949 8.39166 6.40198
1 7.19178 9.1609 7.50807
1 6.41758 10.5237 4.96015
14
Atoms. Timestep: 200
1 4.9171 5.40836 4.91081
1 6.73955 6.73261 6.51841
1 5.46672 8.10868 9.06443
1 5.59521 6.72355 8.44448
1 4.4803 5.86825 6.24423
1 5.45489 6.63367 7.15973
1 8.09912 5.95698 4.27282
1 5.62166 5.46029 9.48954
1 7.30452 5.68514 5.40206
1 6.78183 5.50113 10.3954
1 6.98807 9.64556 5.3477
1 6.83573 8.40655 6.20656
1 6.85189 9.07126 7.56854
1 5.83767 10.3456 4.8315
14
Atoms. Timestep: 250
1 4.12132 4.72251 4.83921
1 6.39795 6.86253 6.17246
1 5.85032 8.29708 8.59825
1 5.40203 6.88572 8.37283
1 4.35575 5.07568 6.36443
1 5.21412 6.31109 6.86372
1 7.78396 6.52962 4.0859
1 6.2906 5.75786 9.1782
1 7.38301 6.01041 5.41471
1 5.83522 4.65345 10.133
1 6.96494 9.38927 5.30823
1 6.68758 8.35631 6.41718
1 6.4694 8.91614 7.65253
1 5.98094 9.77141 4.37995
14
Atoms. Timestep: 300
1 3.89599 4.60324 5.53266
1 5.93326 6.69527 5.4933
1 5.48298 7.80446 8.33317
1 5.62738 6.20653 8.40404
1 4.27696 5.04381 6.73462
1 5.4609 5.85974 6.86989
1 7.73007 6.85059 3.39553
1 5.39343 5.03926 9.38671
1 6.92177 6.07749 4.5033
1 4.68667 3.76864 9.56515
1 6.58961 9.22993 4.80968
1 6.01806 8.21403 5.81798
1 5.8359 8.63398 7.05827
1 6.20657 9.31256 3.53637
14
Atoms. Timestep: 350
1 4.1269 4.80156 5.44024
1 6.00709 6.8632 5.84915
1 6.22009 7.952 8.625
1 6.10776 6.40202 8.45458
1 4.96109 4.76548 6.60855
1 5.80743 5.93066 6.94124
1 7.23468 7.35405 3.74789
1 5.45529 5.65586 9.4513
1 6.81907 6.384 4.72254
1 4.5998 4.61057 9.16828
1 6.44505 9.25431 5.23365
1 6.09307 8.35955 6.14725
1 5.91564 8.7529 7.46738
1 6.77015 8.50108 3.90643
14
Atoms. Timestep: 400
1 3.89848 3.69991 5.27707
1 5.57867 6.44571 5.49802
1 5.5021 7.52392 8.24373
1 5.16994 6.06055 7.93068
1 5.03805 4.24223 6.06618
1 5.16661 5.61315 6.40792
1 6.70512 7.082 3.09711
1 4.94652 4.98698 8.99923
1 6.18469 6.00169 3.97282
1 3.65858 4.22772 9.38881
1 6.15297 9.06121 4.70603
1 6.04482 8.04294 5.83107
1 5.9894 8.39965 7.281
1 6.16888 8.49111 3.16459
14
Atoms. Timestep: 450
1 3.95675 3.31638 5.38038
1 5.84972 6.41735 5.22709
1 4.84363 7.2848 7.9668
1 4.76451 5.76994 7.62574
1 5.13358 3.86683 6.07175
1 5.22214 5.26337 6.27285
1 5.73131 7.26989 2.92469
1 4.64682 4.69425 8.72241
1 5.56581 6.07983 3.75463
1 3.45938 4.49943 9.48874
1 6.59448 8.85233 4.57916
1 6.25241 7.85069 5.64897
1 5.72099 8.33804 6.93072
1 6.32694 8.45765 3.28821
14
Atoms. Timestep: 500
1 4.06498 2.84142 5.49531
1 5.48665 6.37952 5.13067
1 4.94947 6.98036 7.72039
1 5.02811 5.65543 7.49571
1 5.2994 3.68963 5.73253
1 5.29448 5.15178 6.17472
1 5.45396 7.29923 2.71385
1 4.41319 4.77681 8.54494
1 5.19302 6.27176 3.75397
1 3.14278 4.97542 9.41723
1 6.4677 8.68335 4.69857
1 5.99188 7.68538 5.62843
1 5.50681 8.03326 6.99165
1 6.52829 8.41718 3.22649
14
Atoms. Timestep: 550
1 4.31635 2.84862 5.8156
1 5.2217 6.4024 5.02457
1 5.58552 6.72014 7.94571
1 4.62322 5.48061 7.43699
1 5.16829 3.95301 5.51132
1 4.97068 5.33225 5.93628
1 5.75231 7.11591 2.70275
1 3.89941 4.53818 8.28708
1 5.47703 5.96787 3.64382
1 3.00933 4.9945 9.37652
1 6.16788 8.65838 4.58069
1 5.6984 7.62185 5.4569
1 5.88994 7.81277 6.92131
1 6.04407 8.49929 3.16028
14
Atoms. Timestep: 600
1 4.2784 2.62933 6.21178
1 5.45693 6.15043 4.95564
1 5.23311 6.60838 7.71308
1 4.76154 5.4389 7.19364
1 4.8772 3.76778 5.40251
1 4.97606 5.10336 5.79174
1 5.87372 7.18716 2.68457
1 3.78694 4.65303 7.96985
1 5.31012 6.1665 3.50987
1 3.18825 5.19236 9.37454
1 5.86294 8.68643 4.7127
1 5.78079 7.54414 5.53335
1 5.87247 7.76171 6.91307
1 5.94244 8.49677 3.25528
14
Atoms. Timestep: 650
1 4.29391 2.47768 5.99819
1 5.41814 6.08584 4.83721
1 5.12985 6.67206 7.7317
1 4.57032 5.40746 7.1573
1 4.52809 3.74299 5.16389
1 4.75481 5.06209 5.6719
1 5.45687 7.06542 2.57812
1 3.6898 4.4761 7.94352
1 5.339 5.90692 3.44298
1 2.96058 4.76802 9.27823
1 6.12461 8.50989 4.39447
1 5.71202 7.42287 5.36749
1 5.52907 7.70643 6.80653
1 5.76805 8.35352 3.06332
14
Atoms. Timestep: 700
1 4.37238 2.34319 5.82178
1 5.13994 6.02879 4.76403
1 4.84021 6.71144 7.5035
1 4.34328 5.29648 7.06206
1 4.13969 3.61706 5.14972
1 4.53341 4.99258 5.69276
1 5.49595 6.95969 2.33557
1 3.87229 4.26959 8.09528
1 5.09056 5.86315 3.23155
1 2.87294 4.5786 9.08769
1 5.92183 8.42468 4.37393
1 5.54552 7.3872 5.26651
1 5.58043 7.55014 6.64016
1 5.98272 8.24851 2.97781
14
Atoms. Timestep: 750
1 4.52233 2.61896 5.7962
1 4.90895 6.15469 4.79259
1 4.99476 6.63151 7.68887
1 4.62356 5.31056 7.14563
1 4.13027 3.84294 5.20889
1 4.619 5.15241 5.66821
1 5.62033 6.86468 2.47988
1 3.96272 4.29577 8.03127
1 5.10624 5.90769 3.42596
1 3.03099 4.58696 9.0553
1 6.0877 8.39632 4.40719
1 5.38023 7.51746 5.33434
1 5.34948 7.67562 6.76282
1 6.21434 8.05149 2.96574
14
Atoms. Timestep: 800
1 4.40835 2.39734 5.63789
1 4.68531 6.08434 4.6429
1 4.75093 6.59071 7.51638
1 4.40418 5.21804 7.10128
1 3.95026 3.72309 5.10211
1 4.36891 4.97982 5.61106
1 5.66713 6.75288 2.3501
1 4.01271 4.2342 8.05932
1 4.89197 5.85509 3.16541
1 2.91756 4.37011 9.03711
1 5.93352 8.34241 4.27684
1 5.33733 7.33366 5.16158
1 5.25583 7.50792 6.5808
1 6.20351 8.03428 2.88403
14
Atoms. Timestep: 850
1 4.30741 2.46534 5.55715
1 4.87852 6.017 4.68846
1 4.70411 6.58429 7.46911
1 4.16283 5.28984 7.02142
1 3.92388 3.72805 5.0408
1 4.26383 5.00787 5.55897
1 5.56016 6.73501 2.30198
1 3.95323 4.18257 8.01203
1 5.04784 5.75414 3.18877
1 2.98038 4.17006 9.09327
1 5.93316 8.24244 4.24235
1 5.46504 7.26191 5.20401
1 5.17474 7.60455 6.55829
1 5.98224 7.97672 2.77259
14
Atoms. Timestep: 900
1 4.14056 2.26896 5.38731
1 4.95282 5.90835 4.60241
1 4.60243 6.62257 7.48454
1 4.35198 5.27057 7.02341
1 3.7978 3.65199 5.02737
1 4.37012 4.91601 5.53231
1 5.52167 6.72094 2.35072
1 3.97912 4.21483 7.98821
1 5.0614 5.66803 3.19877
1 2.98917 4.35414 8.98527
1 5.84425 8.31081 4.22007
1 5.39147 7.24473 5.17776
1 5.07715 7.59411 6.58083
1 5.94153 7.99016 2.85713
14
Atoms. Timestep: 950
1 4.1475 2.2813 5.3732
1 4.93639 5.92894 4.66845
1 4.69747 6.55154 7.44265
1 4.3449 5.15389 6.98286
1 3.69876 3.67909 4.99169
1 4.33378 4.92955 5.57733
1 5.61495 6.66483 2.25278
1 3.86348 4.13519 7.89094
1 5.14473 5.63591 3.20664
1 2.9977 4.40453 9.00855
1 5.65576 8.29558 4.19834
1 5.23621 7.29106 5.17976
1 5.16088 7.5841 6.5812
1 5.91459 7.95434 2.80715
14
Atoms. Timestep: 1000
1 4.13123 2.31429 5.38049
1 4.81193 5.87381 4.544
1 4.71693 6.38967 7.46598
1 4.24951 5.12514 6.98954
1 3.68632 3.64442 4.94588
1 4.22377 4.89644 5.46218
1 5.64717 6.62447 2.21949
1 3.71465 4.09654 7.87334
1 5.16852 5.60785 3.15171
1 2.96174 4.3273 9.08646
1 5.57949 8.28187 4.1087
1 5.09805 7.24905 5.06701
1 5.1695 7.45465 6.5162
1 5.87952 7.968 2.69295
