14
Atoms. Timestep: 0
1 4.186 5.118 6.729
1 6.66843 7.73341 7.16934
1 4.206 7.949 9.427
1 4.73319 7.03031 8.74601
1 4.94799 5.17817 7.60313
1 6.33074 6.49756 7.00524
1 8.918 6.811 4.939
1 6.56053 6.12393 8.5791
1 7.74552 8.09672 5.25688
1 6.869 5.099 9.569
1 6.40189 8.88077 5.89789
1 8.07885 8.90123 6.82371
1 8.939 9.626 7.653
1 6.245 9.653 4.817
14
Atoms. Timestep: 50
1 4.15739 5.13362 6.47423
1 6.73126 7.65806 6.42424
1 4.00893 7.69784 9.63267
1 4.81175 6.78984 9.97821
1 4.99271 5.89891 5.84264
1 5.81895 6.57416 7.08655
1 8.7699 7.08077 4.29322
1 5.72552 6.08857 8.79912
1 9.18436 7.36038 5.79647
1 7.28603 5.52643 9.54148
1 5.53121 8.2676 5.77493
1 8.19374 8.25403 6.20994
1 8.17841 9.14349 7.59856
1 5.52603 9.50104 4.99978
14
Atoms. Timestep: 100
1 3.55977 4.35729 6.33963
1 6.03356 7.41403 6.36751
1 3.98305 6.71848 9.65627
1 4.85637 7.58141 9.06819
1 4.48628 5.14916 6.16161
1 5.27408 6.17741 7.06285
1 9.57013 6.97041 4.65264
1 6.27661 6.89674 8.43529
1 8.48774 7.30185 5.21141
1 7.09111 5.67272 9.32019
1 5.33583 8.44433 5.30924
1 7.6053 7.70453 6.12126
1 8.35686 8.51703 7.28422
1 5.61157 9.91925 5.26189
14
Atoms. Timestep: 150
1 3.44087 4.47091 6.73775
1 5.59233 7.39916 5.4071
1 3.11761 6.1297 10.1836
1 4.24963 6.85758 9.02373
1 4.79038 4.84999 6.36319
1 5.26749 6.17849 6.44531
1 9.82811 6.83624 4.78046
1 5.57427 6.38968 7.89727
1 8.52707 6.79132 4.60277
1 6.93227 5.62969 8.42545
1 4.87523 8.51465 5.17508
1 7.1481 7.40881 5.25944
1 7.43342 7.58688 6.90586
1 5.46812 9.92476 5.09923
14
Atoms. Timestep: 200
1 3.44172 3.99662 6.63328
1 5.74503 7.22451 5.61351
1 3.79382 6.41525 9.74385
1 4.03917 5.77409 8.69671
1 3.80865 5.39982 5.91756
1 4.97445 6.14318 6.42147
1 9.37673 6.82225 4.46392
1 5.11618 5.79463 7.87605
1 8.09997 6.67394 4.51348
1 6.35253 6.49341 8.4722
1 5.14352 8.13278 4.55947
1 7.34592 7.31309 5.71489
1 8.19318 7.53737 7.10225
1 5.09751 9.70135 4.99619
14
Atoms. Timestep: 250
1 2.85655 4.14438 5.30187
1 5.61631 6.68678 5.32295
1 3.31532 6.07574 9.96975
1 4.01613 5.52879 8.97262
1 3.82368 5.37397 5.321
1 4.73607 5.99338 6.32431
1 9.1114 6.45218 4.06082
1 5.04704 5.99429 7.95475
1 7.75297 6.63665 4.20907
1 6.28745 6.69161 8.38558
1 5.0951 7.53266 4.32931
1 7.02384 6.90555 5.55127
1 7.79182 7.31323 6.9417
1 4.4394 8.83781 4.74926
14
Atoms. Timestep: 300
1 2.93481 3.98705 5.65904
1 5.36442 6.74 5.12351
1 3.40445 5.67027 9.68603
1 3.50525 5.31549 8.28274
1 3.11754 5.43643 5.83716
1 4.48848 5.96235 5.94255
1 9.28906 6.019 4.07343
1 4.83009 5.53721 7.38941
1 7.8179 6.65318 4.0316
1 5.70606 6.4491 8.26184
1 4.69029 7.51519 4.05143
1 7.05584 6.73158 5.27433
1 7.73625 6.6306 6.49288
1 3.63868 8.51766 4.2169
14
Atoms. Timestep: 350
1 2.36921 4.32399 5.92133
1 5.28419 6.70631 4.93043
1 2.95099 5.04625 9.47953
1 3.94307 5.08082 8.51479
1 3.49561 4.87924 5.23558
1 4.3226 5.91085 5.8051
1 8.80432 5.86295 3.90742
1 4.54467 5.83181 7.45235
1 7.69812 6.74184 3.99877
1 6.15892 6.44664 7.70194
1 4.72687 7.85726 4.36317
1 6.66113 6.32591 5.05861
1 7.10675 6.29009 6.72524
1 3.54257 8.08723 3.41367
14
Atoms. Timestep: 400
1 1.98186 4.59232 5.97185
1 5.0702 6.78912 5.06256
1 2.80253 5.25262 8.72968
1 4.04086 4.81998 8.39126
1 3.2931 4.8886 5.46653
1 4.29508 5.77077 6.06715
1 8.61525 5.91441 3.99963
1 5.08971 5.5326 7.35608
1 7.33683 6.57012 4.06823
1 6.54383 5.87741 7.60826
1 4.27737 7.66411 4.4019
1 6.51807 6.62404 5.27258
1 7.04307 6.59734 6.53249
1 3.95591 7.82666 2.89308
14
Atoms. Timestep: 450
1 1.81185 4.84913 6.10163
1 4.85818 6.60479 5.2033
1 2.70842 4.99523 8.46946
1 4.09411 4.95731 8.34007
1 2.95213 4.7773 5.5791
1 4.19387 5.58811 5.9214
1 8.31846 5.99902 3.82124
1 4.86375 5.27462 7.13786
1 7.28372 6.79624 4.12344
1 6.39873 5.47423 7.23082
1 4.10314 7.42203 4.15651
1 6.36815 6.79568 5.24108
1 7.01425 6.52795 6.46178
1 4.46062 7.36699 2.71226
14
Atoms. Timestep: 500
1 1.47172 4.97282 6.14076
1 4.71988 6.22117 4.75296
1 2.28929 4.49164 8.35996
1 3.74335 4.47633 8.0472
1 2.64157 4.76932 5.40768
1 3.97595 5.36952 5.66364
1 7.87082 6.25797 2.99756
1 4.56733 5.06917 7.04437
1 7.07231 6.93285 4.02927
1 5.8919 5.50495 7.32609
1 4.02664 6.79078 3.75237
1 6.26782 6.29578 4.86156
1 6.67875 5.97535 6.33088
1 4.50527 6.96334 2.37078
14
Atoms. Timestep: 550
1 1.37467 5.10579 6.20543
1 4.66913 5.8531 4.57584
1 2.16709 4.24086 8.1324
1 3.67877 4.22876 7.9751
1 2.40591 4.93784 5.35469
1 3.72621 5.28712 5.6028
1 7.29212 6.56813 2.71361
1 4.28988 4.99007 6.93263
1 6.99348 6.84991 4.11727
1 5.7161 5.335 7.17059
1 4.11869 6.33752 3.37985
1 6.01059 6.0541 4.88975
1 6.62055 5.90508 6.19193
1 4.75098 6.67933 2.08506
14
Atoms. Timestep: 600
1 1.49176 4.95599 6.62983
1 4.67236 5.8443 4.58976
1 1.85947 4.42236 7.59191
1 3.35395 4.13391 7.77578
1 2.41152 5.22395 5.44613
1 3.78035 5.28926 5.60144
1 6.52252 6.95058 2.64425
1 4.38262 4.77702 6.85635
1 6.88993 6.81845 3.8568
1 5.79229 5.12079 7.15478
1 4.32298 5.835 3.12087
1 6.01331 6.28496 4.95772
1 6.55242 5.8705 6.26293
1 5.10918 6.25175 2.23081
14
Atoms. Timestep: 650
1 0.899801 4.71906 6.17006
1 4.3671 5.32406 4.26586
1 1.51961 3.75558 7.50874
1 3.04491 3.89099 7.70542
1 1.92605 5.1422 5.26333
1 3.40467 4.94581 5.37572
1 6.26507 6.70682 2.16182
1 3.95114 4.52015 6.57867
1 6.57073 6.76418 3.55108
1 5.37647 4.79734 6.72046
1 3.97346 5.28619 2.60587
1 5.78072 5.8504 4.56012
1 6.18952 5.48241 5.95393
1 4.91007 6.11376 1.71481
14
Atoms. Timestep: 700
1 0.931677 4.45965 5.98179
1 4.24112 5.44442 4.18028
1 1.44398 4.05127 7.49373
1 2.9131 3.78078 7.57324
1 1.78973 4.64681 4.90739
1 3.32838 4.90673 5.14329
1 6.05524 6.37715 2.00854
1 3.91521 4.39088 6.53364
1 6.51908 6.50916 3.37624
1 5.34727 4.73392 6.7917
1 3.88026 5.47286 2.82029
1 5.64632 5.85359 4.55129
1 6.22735 5.40344 5.84868
1 4.75665 6.20223 1.83506
14
Atoms. Timestep: 750
1 0.825325 3.99197 6.03374
1 4.1732 5.33298 4.0574
1 1.4206 3.87633 7.15543
1 2.86457 4.12027 7.48122
1 1.72142 4.54265 4.84523
1 3.22104 4.71665 5.10707
1 6.01322 6.47311 2.08658
1 3.75395 4.44561 6.49169
1 6.56019 5.99051 3.33082
1 5.14994 4.6769 6.73182
1 3.64872 5.74866 2.69699
1 5.60131 5.40189 4.32561
1 5.98692 5.37574 5.70345
1 4.56165 6.19502 1.62239
14
Atoms. Timestep: 800
1 0.856369 3.83651 5.74133
1 4.02054 5.34143 4.01878
1 1.43661 3.64945 7.13535
1 2.61505 4.18408 7.44863
1 1.77679 4.3297 4.67688
1 3.1372 4.7459 4.99828
1 5.83359 6.40347 1.97372
1 3.57756 4.62131 6.34659
1 6.45532 5.74421 3.24591
1 5.02759 4.81243 6.7092
1 3.40393 5.73208 2.71342
1 5.57065 5.24221 4.27769
1 6.06087 4.88691 5.60202
1 4.44012 6.1972 1.59334
14
Atoms. Timestep: 850
1 0.797292 3.54941 5.64271
1 3.8938 5.22274 3.81347
1 1.17622 3.56516 7.12831
1 2.55018 4.0594 7.30664
1 1.588 4.20227 4.52022
1 2.93727 4.65638 4.8593
1 5.77494 5.99993 1.73174
1 3.42938 4.42255 6.262
1 6.23003 5.6405 3.04463
1 4.8869 4.5768 6.60482
1 3.39257 5.63482 2.43345
1 5.32659 5.2214 4.12758
1 5.83774 4.86766 5.50274
1 4.35486 6.27424 1.62751
14
Atoms. Timestep: 900
1 0.593859 3.67424 5.4582
1 3.85611 5.10823 3.85014
1 1.13272 3.6284 6.844
1 2.56171 3.81416 7.20027
1 1.6264 4.19247 4.56276
1 2.95131 4.57142 4.96251
1 5.61823 5.97743 1.66425
1 3.48213 4.27018 6.30601
1 6.19863 5.67564 3.0052
1 4.79082 4.57972 6.55092
1 3.36268 5.64935 2.61306
1 5.29274 5.14403 4.06795
1 5.7643 4.96762 5.45749
1 4.23783 6.00443 1.41167
14
Atoms. Timestep: 950
1 0.49838 3.73809 5.53986
1 3.65785 5.00025 3.64558
1 0.94366 3.25974 6.84151
1 2.34745 3.59796 7.10053
1 1.32983 4.1631 4.42841
1 2.70213 4.48684 4.7008
1 5.58287 5.95263 1.56455
1 3.23627 4.04485 6.05307
1 6.02251 5.57576 2.85842
1 4.72663 4.22775 6.30686
1 3.22158 5.3072 2.25883
1 5.09511 5.15469 3.98092
1 5.58254 4.97181 5.35101
1 4.23396 5.7159 1.21564
14
Atoms. Timestep: 1000
1 0.378068 3.82417 5.43879
1 3.68575 4.9254 3.61783
1 0.860367 3.25222 6.70489
1 2.30235 3.41146 7.00816
1 1.32919 4.32487 4.44373
1 2.82851 4.45493 4.70517
1 5.47968 5.89556 1.54696
1 3.29895 3.992 5.99834
1 5.93056 5.79298 2.95942
1 4.70107 4.33033 6.32061
1 3.19206 5.015 2.23215
1 5.05217 5.1862 3.98376
1 5.59731 4.75005 5.26323
1 4.05182 5.59752 1.16883
