14
Atoms. Timestep: 0
1 4.186 5.118 6.729
1 6.996 7.764 6.781
1 4.206 7.949 9.427
1 4.59894 8.16846 8.24339
1 5.036 5.961 7.593
1 6.20509 7.59804 7.82948
1 8.918 6.811 4.939
1 6.05371 5.96973 8.76823
1 8.35609 8.87843 4.96378
1 6.869 5.099 9.569
1 7.06 8.8 5.705
1 8.25182 8.68966 6.8067
1 8.939 9.626 7.653
1 6.245 9.653 4.817
14
Atoms. Timestep: 50
1 4.15064 4.12324 6.75425
1 6.81438 8.21018 7.04735
1 3.9944 8.25917 8.90572
1 5.19378 8.34993 9.01465
1 4.64362 5.22679 7.75778
1 5.85886 7.63414 7.83781
1 8.83119 6.69412 4.7954
1 5.68923 6.13243 7.94648
1 8.1441 8.77115 5.3968
1 6.50057 5.35336 8.74612
1 6.98584 8.46789 4.54884
1 8.29386 8.5449 6.68223
1 9.42037 9.41804 7.75239
1 5.71452 9.41687 5.06629
14
Atoms. Timestep: 100
1 4.36077 4.16577 7.31402
1 6.18557 8.68552 7.35037
1 3.76474 9.18257 9.21174
1 4.65262 8.00204 9.1904
1 5.00651 5.43614 6.92548
1 5.61672 7.53571 8.16519
1 8.76142 6.60018 4.67998
1 5.91336 6.08285 7.88301
1 8.02853 8.93649 5.2841
1 7.0648 5.06995 7.9757
1 7.16812 9.06453 4.12543
1 7.64185 8.29763 6.65542
1 8.89464 8.0829 7.93217
1 5.82108 8.26779 4.29514
14
Atoms. Timestep: 150
1 3.79759 3.83149 7.27641
1 6.43037 8.72778 7.44792
1 4.02689 8.96929 9.77732
1 4.22827 7.7134 8.94677
1 5.04077 4.89086 6.82953
1 5.17794 7.6808 7.64679
1 8.65667 6.45913 4.5067
1 5.80972 6.08155 7.90919
1 7.74862 8.77285 5.29485
1 7.12648 6.08115 7.72613
1 6.68493 8.99908 4.36843
1 7.44838 8.37267 6.78759
1 8.22413 7.27107 7.16747
1 6.44621 7.76914 3.40545
14
Atoms. Timestep: 200
1 3.49001 4.29897 7.70417
1 6.00624 8.5418 7.40835
1 3.63719 7.93772 10.0138
1 4.0173 7.66967 8.58158
1 4.7862 5.28074 7.03104
1 5.21513 7.30508 7.71603
1 8.53979 6.30177 4.31335
1 5.78002 6.04611 7.77973
1 7.33091 8.91101 5.20638
1 7.13056 5.90525 7.43237
1 7.05937 8.78161 3.84702
1 6.93631 8.01596 6.13743
1 7.90529 6.99141 6.8467
1 6.74355 7.63626 2.95531
14
Atoms. Timestep: 250
1 3.41553 4.92778 8.14865
1 5.56085 8.17512 6.77386
1 3.17215 6.81371 9.79773
1 3.82939 7.75629 8.66089
1 4.71322 4.70085 7.63025
1 4.7664 7.26774 7.49555
1 8.39457 6.10624 4.07313
1 5.41561 5.84785 7.29727
1 7.13416 8.98362 5.06271
1 6.80635 5.79993 6.87978
1 7.4668 8.65391 3.63669
1 6.84766 8.06414 6.00931
1 7.34867 6.58682 5.9235
1 6.88717 7.45824 2.95337
14
Atoms. Timestep: 300
1 3.08075 4.71581 8.90292
1 5.01203 7.73078 6.22563
1 2.57045 5.92781 8.74089
1 3.31322 7.20641 8.37745
1 3.96464 4.28258 7.82376
1 4.3994 6.64598 7.32993
1 7.8632 5.92789 4.21086
1 4.91006 5.21832 7.09514
1 6.95008 8.85302 4.26507
1 5.77985 5.09437 5.72591
1 7.34714 8.66123 2.88515
1 6.27844 7.55364 5.50174
1 6.53353 6.21769 5.12827
1 7.2242 7.35868 2.03564
14
Atoms. Timestep: 350
1 3.00278 4.60204 8.69913
1 4.99767 7.66739 6.29613
1 2.76456 6.04046 9.01429
1 3.13279 7.00002 7.98453
1 4.22401 4.08328 8.03018
1 4.21747 6.6386 6.72986
1 7.55892 5.57826 4.36443
1 4.76601 5.28415 6.89602
1 6.62056 8.61394 4.27928
1 5.34525 4.8376 5.65621
1 7.02741 8.66134 2.77764
1 6.08415 7.374 5.09856
1 6.14103 5.88806 4.77208
1 7.72068 7.69615 2.13502
14
Atoms. Timestep: 400
1 3.38621 4.63768 8.83884
1 4.81261 7.73849 5.9578
1 2.93608 6.00578 8.99244
1 3.32995 7.05888 8.09043
1 4.0619 4.24545 7.60938
1 4.02427 6.72792 6.73546
1 7.31712 5.62092 4.04368
1 4.57073 5.35215 6.58009
1 6.55966 8.39389 4.47389
1 5.63559 4.78791 5.90487
1 6.84845 8.26144 2.8975
1 5.79084 7.413 5.2816
1 6.34746 6.00376 5.04993
1 8.04782 7.77559 2.33845
14
Atoms. Timestep: 450
1 3.23191 4.59261 8.71759
1 4.4923 7.45319 5.83645
1 2.84764 5.91366 8.82667
1 3.34675 6.9264 8.02645
1 3.68933 4.19901 7.32672
1 4.04375 6.55309 6.77526
1 7.04143 5.43695 3.88286
1 4.50275 5.10666 6.69021
1 6.3433 8.26588 4.19473
1 5.62091 4.91951 5.80486
1 6.84917 8.21378 2.74711
1 5.49372 7.10809 4.84516
1 6.189 5.85301 4.97982
1 8.0648 7.79843 2.35653
14
Atoms. Timestep: 500
1 2.61117 4.359 8.34778
1 4.58199 7.20024 5.80644
1 2.39437 5.79163 8.578
1 3.09877 6.66617 7.82123
1 3.80879 3.9398 7.52021
1 3.94674 6.33165 6.70559
1 6.98943 5.33641 3.48228
1 4.45754 4.97643 6.70805
1 5.84942 8.06878 3.75178
1 5.06799 4.54484 5.31233
1 6.59999 7.9473 2.43755
1 5.27335 6.96159 4.5595
1 5.73203 5.56009 4.58799
1 8.0318 7.74042 2.30009
14
Atoms. Timestep: 550
1 2.66743 4.20663 8.19708
1 4.57873 7.32741 5.82895
1 2.24625 5.51032 8.53822
1 2.68436 6.61937 7.69593
1 3.61651 3.78773 7.2552
1 3.76287 6.30945 6.56389
1 6.51307 5.13661 3.20966
1 4.28833 4.90133 6.49532
1 5.58033 7.8732 3.46798
1 5.11426 4.53786 5.30777
1 6.45028 7.56188 2.29178
1 5.33606 6.93135 4.58607
1 5.81727 5.45 4.54062
1 7.98727 7.68681 2.26047
14
Atoms. Timestep: 600
1 2.63617 4.22501 8.24104
1 4.23477 7.12664 5.61025
1 2.19609 5.56206 8.41158
1 2.8096 6.60717 7.65014
1 3.45666 3.82095 7.14377
1 3.72809 6.21445 6.4622
1 6.40604 4.91038 3.17329
1 4.26138 4.77098 6.31049
1 5.6632 7.90581 3.58894
1 5.3118 4.46726 5.3952
1 6.43085 7.77602 2.34975
1 5.09867 6.72711 4.48912
1 5.7354 5.36992 4.36207
1 7.81548 7.60041 2.24979
14
Atoms. Timestep: 650
1 2.63214 4.07825 8.21989
1 4.06455 7.05081 5.51738
1 2.08129 5.40929 8.27469
1 2.74275 6.54453 7.57957
1 3.65769 3.82081 7.2483
1 3.61848 6.12878 6.40181
1 6.4114 5.129 3.11611
1 4.10918 4.76807 6.2588
1 5.75991 7.75408 3.66164
1 4.98915 4.40521 5.19083
1 6.44131 7.48231 2.33448
1 4.99122 6.73768 4.41467
1 5.4803 5.43362 4.18041
1 7.80585 7.46261 2.10697
14
Atoms. Timestep: 700
1 2.64755 3.97601 8.19133
1 4.17206 7.01966 5.4268
1 2.06123 5.35533 8.35649
1 2.27655 6.27607 7.12598
1 3.42861 3.59404 7.08415
1 3.42959 5.95453 6.20286
1 6.21192 4.73071 3.00062
1 3.81488 4.58477 6.10057
1 5.4388 7.71572 3.30695
1 4.77359 4.23938 5.01134
1 6.29829 7.68648 2.15155
1 4.9963 6.67561 4.36709
1 5.3819 5.19845 4.1287
1 7.70064 7.30328 2.04191
14
Atoms. Timestep: 750
1 2.49227 4.00052 8.06512
1 3.84583 6.96628 5.20196
1 2.15216 5.36983 8.37095
1 2.59061 6.37575 7.36656
1 3.44191 3.61796 7.09671
1 3.58789 6.02438 6.29595
1 6.27912 5.00033 2.97881
1 3.96932 4.59997 6.14971
1 5.4405 7.67292 3.38071
1 4.8529 4.26459 4.95803
1 6.26958 7.43182 2.20288
1 4.92126 6.70513 4.28361
1 5.43754 5.36374 4.11395
1 7.68505 7.21075 2.34308
14
Atoms. Timestep: 800
1 2.46788 3.95899 8.10164
1 3.92724 6.95796 5.31495
1 2.05403 5.30645 8.25062
1 2.65364 6.30209 7.34909
1 3.36457 3.58304 6.96159
1 3.55375 5.97504 6.25247
1 6.31661 4.86798 2.99256
1 3.86149 4.59545 6.02391
1 5.27687 7.64073 3.29054
1 4.87279 4.32328 5.04441
1 6.25927 7.4584 2.14191
1 4.74282 6.61675 4.09184
1 5.28806 5.27425 3.96156
1 7.63546 7.13502 2.38574
14
Atoms. Timestep: 850
1 2.46863 3.83404 8.05024
1 4.08517 6.95592 5.27341
1 1.95207 5.21468 8.14094
1 2.42061 6.25752 7.27112
1 3.3586 3.52966 6.90488
1 3.36607 5.91996 6.11676
1 6.12763 4.69681 2.8881
1 3.68666 4.50543 5.9106
1 5.08368 7.55952 3.00216
1 4.7192 4.17208 4.94389
1 6.15012 7.51096 2.09709
1 4.81458 6.60617 4.12056
1 5.29442 5.12349 4.02778
1 7.57006 7.07345 2.31714
14
Atoms. Timestep: 900
1 2.3078 3.91365 7.97159
1 3.87042 6.8832 5.20442
1 2.02136 5.31544 8.14824
1 2.4988 6.27296 7.22519
1 3.3492 3.47734 6.95486
1 3.49059 5.90385 6.21379
1 6.14045 4.84059 2.85379
1 3.93018 4.49353 6.03998
1 5.12948 7.56298 3.1484
1 4.72882 4.12955 4.83893
1 6.14929 7.42422 2.07681
1 4.70542 6.5215 4.02078
1 5.26451 5.19019 3.91336
1 7.53003 7.04726 2.47211
14
Atoms. Timestep: 950
1 2.3317 3.81233 7.92698
1 3.78224 6.8631 5.10343
1 2.03553 5.18318 8.16551
1 2.43624 6.16991 7.20094
1 3.22219 3.47796 6.87413
1 3.39729 5.88758 6.15751
1 5.98817 4.76278 2.77211
1 3.85096 4.52325 6.0062
1 5.08683 7.54739 2.99498
1 4.76853 4.19429 4.88351
1 6.16834 7.34267 2.08084
1 4.63146 6.52566 3.97552
1 5.19897 5.14202 3.9074
1 7.57967 6.98248 2.43766
14
Atoms. Timestep: 1000
1 2.44108 3.79924 7.99705
1 3.86731 6.82136 5.10716
1 1.8763 5.15389 8.05175
1 2.40109 6.20695 7.13588
1 3.36007 3.47907 6.94237
1 3.26515 5.82832 6.00631
1 5.91467 4.59064 2.7247
1 3.67323 4.41112 5.87958
1 5.03985 7.55297 3.00255
1 4.62445 4.10924 4.8521
1 6.17397 7.4828 2.08541
1 4.69688 6.49053 3.99343
1 5.18244 5.11749 3.85698
1 7.48636 6.95273 2.40802
