USPEX

14 atoms
1 atom types

0.0 30.00 xlo xhi
0.0 30.00 ylo yhi
0.0 30.00 zlo zhi
0.00 0.00 0.00 xy xz yz

Atoms

   1  1  4.186   5.118   6.729
2 1 6.40242540288 7.70163132134 6.04261212035
   3  1  4.206   7.949   9.427
4 1 4.14565146254 6.50453057948 8.66899103938
5 1 5.73214790222 4.9744040531 7.16581733137
6 1 6.56804792771 7.32902217546 7.93573983306
   7  1  8.918   6.811   4.939
8 1 5.93687354766 5.76449313304 8.88486640628
9 1 8.11375661495 7.89182800587 5.21082589991
  10  1  6.869   5.099   9.569
11 1 7.54566687802 9.84477344081 5.78430989975
12 1 8.17818256508 8.53163363185 7.05917458898
  13  1  8.939   9.626   7.653
  14  1  6.245   9.653   4.817

