USPEX

14 atoms
1 atom types

0.0 30.00 xlo xhi
0.0 30.00 ylo yhi
0.0 30.00 zlo zhi
0.00 0.00 0.00 xy xz yz

Atoms

   1  1  4.186   5.118   6.729
2 1 6.7231554122 7.79551114068 6.51028513915
   3  1  4.206   7.949   9.427
4 1 4.72062377726 6.87443454023 8.71211731921
5 1 5.20451432377 5.81253131893 7.32968045379
   6  1  6.130   6.982   7.595
   7  1  8.918   6.811   4.939
8 1 5.95157168979 5.82325713446 8.86789563316
9 1 8.41227094168 7.75704332873 5.72626066805
  10  1  6.869   5.099   9.569
11 1 7.23823876641 9.24995024369 5.75751330112
12 1 8.25201327517 8.68901514767 6.9995719074
  13  1  8.939   9.626   7.653
  14  1  6.245   9.653   4.817

