USPEX

14 atoms
1 atom types

0.0 30.00 xlo xhi
0.0 30.00 ylo yhi
0.0 30.00 zlo zhi
0.00 0.00 0.00 xy xz yz

Atoms

   1  1  4.186   5.118   6.729
2 1 6.42954193875 7.70372255812 6.06003761639
   3  1  4.206   7.949   9.427
4 1 4.43533274703 6.71032354183 8.42340133316
5 1 5.47008702177 5.30449829954 7.11092936226
6 1 6.17885050878 7.24090582394 7.85582641915
   7  1  8.918   6.811   4.939
8 1 5.9658722169 5.76996675009 8.90118430151
9 1 8.22847733306 7.7727471288 5.26133672731
  10  1  6.869   5.099   9.569
11 1 7.43578207796 9.68557684635 5.67631602381
12 1 8.21746226145 8.53665133552 7.05337849338
  13  1  8.939   9.626   7.653
  14  1  6.245   9.653   4.817

