USPEX

14 atoms
1 atom types

0.0 30.00 xlo xhi
0.0 30.00 ylo yhi
0.0 30.00 zlo zhi
0.00 0.00 0.00 xy xz yz

Atoms

   1  1  4.186   5.118   6.729
   2  1  6.996   7.764   6.781
   3  1  4.206   7.949   9.427
   4  1  5.043   7.038   8.622
   5  1  5.036   5.961   7.593
   6  1  6.130   6.982   7.595
   7  1  8.918   6.811   4.939
   8  1  6.060   5.952   8.676
   9  1  8.080   7.716   5.752
  10  1  6.869   5.099   9.569
  11  1  7.060   8.800   5.705
  12  1  8.087   8.788   6.785
  13  1  8.939   9.626   7.653
  14  1  6.245   9.653   4.817

