4000
Atoms. Timestep: 0
1 3.218 3.218 4.276
1 4.276 0.529 0.529
1 4.276 4.276 4.276
1 0.529 6.965 3.218
1 4.276 3.218 3.218
1 6.965 4.276 6.965
1 0.529 4.276 0.529
1 3.218 0.529 6.965
1 3.218 4.276 3.218
1 6.965 6.965 4.276
1 0.529 0.529 4.276
1 6.965 3.218 0.529
1 4.276 6.965 6.965
1 1.344 5.091 1.344
1 5.091 5.091 5.091
1 6.15 6.15 5.091
1 5.091 2.403 2.403
1 2.403 1.344 6.15
1 1.344 6.15 2.403
1 2.403 2.403 5.091
1 6.15 5.091 6.15
1 5.091 1.344 1.344
1 2.403 5.091 2.403
1 6.15 2.403 1.344
1 1.344 1.344 5.091
1 5.091 6.15 6.15
1 1.344 2.403 6.15
1 6.15 1.344 2.403
1 2.403 6.15 1.344
1 6.965 0.529 3.218
1 0.529 3.218 6.965
1 3.218 6.965 0.529
1 10.712 3.218 4.276
1 11.771 0.529 0.529
1 11.771 4.276 4.276
1 8.024 6.965 3.218
1 11.771 3.218 3.218
1 14.459 4.276 6.965
1 8.024 4.276 0.529
1 10.712 0.529 6.965
1 10.712 4.276 3.218
1 14.459 6.965 4.276
1 8.024 0.529 4.276
1 14.459 3.218 0.529
1 11.771 6.965 6.965
1 8.838 5.091 1.344
1 12.585 5.091 5.091
1 13.644 6.15 5.091
1 12.585 2.403 2.403
1 9.897 1.344 6.15
1 8.838 6.15 2.403
1 9.897 2.403 5.091
1 13.644 5.091 6.15
1 12.585 1.344 1.344
1 9.897 5.091 2.403
1 13.644 2.403 1.344
1 8.838 1.344 5.091
1 12.585 6.15 6.15
1 8.838 2.403 6.15
1 13.644 1.344 2.403
1 9.897 6.15 1.344
1 14.459 0.529 3.218
1 8.024 3.218 6.965
1 10.712 6.965 0.529
1 18.206 3.218 4.276
1 19.265 0.529 0.529
1 19.265 4.276 4.276
1 15.518 6.965 3.218
1 19.265 3.218 3.218
1 21.953 4.276 6.965
1 15.518 4.276 0.529
1 18.206 0.529 6.965
1 18.206 4.276 3.218
1 21.953 6.965 4.276
1 15.518 0.529 4.276
1 21.953 3.218 0.529
1 19.265 6.965 6.965
1 16.333 5.091 1.344
1 20.08 5.091 5.091
1 21.138 6.15 5.091
1 20.08 2.403 2.403
1 17.391 1.344 6.15
1 16.333 6.15 2.403
1 17.391 2.403 5.091
1 21.138 5.091 6.15
1 20.08 1.344 1.344
1 17.391 5.091 2.403
1 21.138 2.403 1.344
1 16.333 1.344 5.091
1 20.08 6.15 6.15
1 16.333 2.403 6.15
1 21.138 1.344 2.403
1 17.391 6.15 1.344
1 21.953 0.529 3.218
1 15.518 3.218 6.965
1 18.206 6.965 0.529
1 25.7 3.218 4.276
1 26.759 0.529 0.529
1 26.759 4.276 4.276
1 23.012 6.965 3.218
1 26.759 3.218 3.218
1 29.447 4.276 6.965
1 23.012 4.276 0.529
1 25.7 0.529 6.965
1 25.7 4.276 3.218
1 29.447 6.965 4.276
1 23.012 0.529 4.276
1 29.447 3.218 0.529
1 26.759 6.965 6.965
1 23.827 5.091 1.344
1 27.574 5.091 5.091
1 28.633 6.15 5.091
1 27.574 2.403 2.403
1 24.885 1.344 6.15
1 23.827 6.15 2.403
1 24.885 2.403 5.091
1 28.633 5.091 6.15
1 27.574 1.344 1.344
1 24.885 5.091 2.403
1 28.633 2.403 1.344
1 23.827 1.344 5.091
1 27.574 6.15 6.15
1 23.827 2.403 6.15
1 28.633 1.344 2.403
1 24.885 6.15 1.344
1 29.447 0.529 3.218
1 23.012 3.218 6.965
1 25.7 6.965 0.529
1 33.194 3.218 4.276
1 34.253 0.529 0.529
1 34.253 4.276 4.276
1 30.506 6.965 3.218
1 34.253 3.218 3.218
1 36.942 4.276 6.965
1 30.506 4.276 0.529
1 33.194 0.529 6.965
1 33.194 4.276 3.218
1 36.942 6.965 4.276
1 30.506 0.529 4.276
1 36.942 3.218 0.529
1 34.253 6.965 6.965
1 31.321 5.091 1.344
1 35.068 5.091 5.091
1 36.127 6.15 5.091
1 35.068 2.403 2.403
1 32.38 1.344 6.15
1 31.321 6.15 2.403
1 32.38 2.403 5.091
1 36.127 5.091 6.15
1 35.068 1.344 1.344
1 32.38 5.091 2.403
1 36.127 2.403 1.344
1 31.321 1.344 5.091
1 35.068 6.15 6.15
1 31.321 2.403 6.15
1 36.127 1.344 2.403
1 32.38 6.15 1.344
1 36.942 0.529 3.218
1 30.506 3.218 6.965
1 33.194 6.965 0.529
1 3.218 10.712 4.276
1 4.276 8.024 0.529
1 4.276 11.771 4.276
1 0.529 14.459 3.218
1 4.276 10.712 3.218
1 6.965 11.771 6.965
1 0.529 11.771 0.529
1 3.218 8.024 6.965
1 3.218 11.771 3.218
1 6.965 14.459 4.276
1 0.529 8.024 4.276
1 6.965 10.712 0.529
1 4.276 14.459 6.965
1 1.344 12.585 1.344
1 5.091 12.585 5.091
1 6.15 13.644 5.091
1 5.091 9.897 2.403
1 2.403 8.838 6.15
1 1.344 13.644 2.403
1 2.403 9.897 5.091
1 6.15 12.585 6.15
1 5.091 8.838 1.344
1 2.403 12.585 2.403
1 6.15 9.897 1.344
1 1.344 8.838 5.091
1 5.091 13.644 6.15
1 1.344 9.897 6.15
1 6.15 8.838 2.403
1 2.403 13.644 1.344
1 6.965 8.024 3.218
1 0.529 10.712 6.965
1 3.218 14.459 0.529
1 10.712 10.712 4.276
1 11.771 8.024 0.529
1 11.771 11.771 4.276
1 8.024 14.459 3.218
1 11.771 10.712 3.218
1 14.459 11.771 6.965
1 8.024 11.771 0.529
1 10.712 8.024 6.965
1 10.712 11.771 3.218
1 14.459 14.459 4.276
1 8.024 8.024 4.276
1 14.459 10.712 0.529
1 11.771 14.459 6.965
1 8.838 12.585 1.344
1 12.585 12.585 5.091
1 13.644 13.644 5.091
1 12.585 9.897 2.403
1 9.897 8.838 6.15
1 8.838 13.644 2.403
1 9.897 9.897 5.091
1 13.644 12.585 6.15
1 12.585 8.838 1.344
1 9.897 12.585 2.403
1 13.644 9.897 1.344
1 8.838 8.838 5.091
1 12.585 13.644 6.15
1 8.838 9.897 6.15
1 13.644 8.838 2.403
1 9.897 13.644 1.344
1 14.459 8.024 3.218
1 8.024 10.712 6.965
1 10.712 14.459 0.529
1 18.206 10.712 4.276
1 19.265 8.024 0.529
1 19.265 11.771 4.276
1 15.518 14.459 3.218
1 19.265 10.712 3.218
1 21.953 11.771 6.965
1 15.518 11.771 0.529
1 18.206 8.024 6.965
1 18.206 11.771 3.218
1 21.953 14.459 4.276
1 15.518 8.024 4.276
1 21.953 10.712 0.529
1 19.265 14.459 6.965
1 16.333 12.585 1.344
1 20.08 12.585 5.091
1 21.138 13.644 5.091
1 20.08 9.897 2.403
1 17.391 8.838 6.15
1 16.333 13.644 2.403
1 17.391 9.897 5.091
1 21.138 12.585 6.15
1 20.08 8.838 1.344
1 17.391 12.585 2.403
1 21.138 9.897 1.344
1 16.333 8.838 5.091
1 20.08 13.644 6.15
1 16.333 9.897 6.15
1 21.138 8.838 2.403
1 17.391 13.644 1.344
1 21.953 8.024 3.218
1 15.518 10.712 6.965
1 18.206 14.459 0.529
1 25.7 10.712 4.276
1 26.759 8.024 0.529
1 26.759 11.771 4.276
1 23.012 14.459 3.218
1 26.759 10.712 3.218
1 29.447 11.771 6.965
1 23.012 11.771 0.529
1 25.7 8.024 6.965
1 25.7 11.771 3.218
1 29.447 14.459 4.276
1 23.012 8.024 4.276
1 29.447 10.712 0.529
1 26.759 14.459 6.965
1 23.827 12.585 1.344
1 27.574 12.585 5.091
1 28.633 13.644 5.091
1 27.574 9.897 2.403
1 24.885 8.838 6.15
1 23.827 13.644 2.403
1 24.885 9.897 5.091
1 28.633 12.585 6.15
1 27.574 8.838 1.344
1 24.885 12.585 2.403
1 28.633 9.897 1.344
1 23.827 8.838 5.091
1 27.574 13.644 6.15
1 23.827 9.897 6.15
1 28.633 8.838 2.403
1 24.885 13.644 1.344
1 29.447 8.024 3.218
1 23.012 10.712 6.965
1 25.7 14.459 0.529
1 33.194 10.712 4.276
1 34.253 8.024 0.529
1 34.253 11.771 4.276
1 30.506 14.459 3.218
1 34.253 10.712 3.218
1 36.942 11.771 6.965
1 30.506 11.771 0.529
1 33.194 8.024 6.965
1 33.194 11.771 3.218
1 36.942 14.459 4.276
1 30.506 8.024 4.276
1 36.942 10.712 0.529
1 34.253 14.459 6.965
1 31.321 12.585 1.344
1 35.068 12.585 5.091
1 36.127 13.644 5.091
1 35.068 9.897 2.403
1 32.38 8.838 6.15
1 31.321 13.644 2.403
1 32.38 9.897 5.091
1 36.127 12.585 6.15
1 35.068 8.838 1.344
1 32.38 12.585 2.403
1 36.127 9.897 1.344
1 31.321 8.838 5.091
1 35.068 13.644 6.15
1 31.321 9.897 6.15
1 36.127 8.838 2.403
1 32.38 13.644 1.344
1 36.942 8.024 3.218
1 30.506 10.712 6.965
1 33.194 14.459 0.529
1 3.218 18.206 4.276
1 4.276 15.518 0.529
1 4.276 19.265 4.276
1 0.529 21.953 3.218
1 4.276 18.206 3.218
1 6.965 19.265 6.965
1 0.529 19.265 0.529
1 3.218 15.518 6.965
1 3.218 19.265 3.218
1 6.965 21.953 4.276
1 0.529 15.518 4.276
1 6.965 18.206 0.529
1 4.276 21.953 6.965
1 1.344 20.08 1.344
1 5.091 20.08 5.091
1 6.15 21.138 5.091
1 5.091 17.391 2.403
1 2.403 16.333 6.15
1 1.344 21.138 2.403
1 2.403 17.391 5.091
1 6.15 20.08 6.15
1 5.091 16.333 1.344
1 2.403 20.08 2.403
1 6.15 17.391 1.344
1 1.344 16.333 5.091
1 5.091 21.138 6.15
1 1.344 17.391 6.15
1 6.15 16.333 2.403
1 2.403 21.138 1.344
1 6.965 15.518 3.218
1 0.529 18.206 6.965
1 3.218 21.953 0.529
1 10.712 18.206 4.276
1 11.771 15.518 0.529
1 11.771 19.265 4.276
1 8.024 21.953 3.218
1 11.771 18.206 3.218
1 14.459 19.265 6.965
1 8.024 19.265 0.529
1 10.712 15.518 6.965
1 10.712 19.265 3.218
1 14.459 21.953 4.276
1 8.024 15.518 4.276
1 14.459 18.206 0.529
1 11.771 21.953 6.965
1 8.838 20.08 1.344
1 12.585 20.08 5.091
1 13.644 21.138 5.091
1 12.585 17.391 2.403
1 9.897 16.333 6.15
1 8.838 21.138 2.403
1 9.897 17.391 5.091
1 13.644 20.08 6.15
1 12.585 16.333 1.344
1 9.897 20.08 2.403
1 13.644 17.391 1.344
1 8.838 16.333 5.091
1 12.585 21.138 6.15
1 8.838 17.391 6.15
1 13.644 16.333 2.403
1 9.897 21.138 1.344
1 14.459 15.518 3.218
1 8.024 18.206 6.965
1 10.712 21.953 0.529
1 18.206 18.206 4.276
1 19.265 15.518 0.529
1 19.265 19.265 4.276
1 15.518 21.953 3.218
1 19.265 18.206 3.218
1 21.953 19.265 6.965
1 15.518 19.265 0.529
1 18.206 15.518 6.965
1 18.206 19.265 3.218
1 21.953 21.953 4.276
1 15.518 15.518 4.276
1 21.953 18.206 0.529
1 19.265 21.953 6.965
1 16.333 20.08 1.344
1 20.08 20.08 5.091
1 21.138 21.138 5.091
1 20.08 17.391 2.403
1 17.391 16.333 6.15
1 16.333 21.138 2.403
1 17.391 17.391 5.091
1 21.138 20.08 6.15
1 20.08 16.333 1.344
1 17.391 20.08 2.403
1 21.138 17.391 1.344
1 16.333 16.333 5.091
1 20.08 21.138 6.15
1 16.333 17.391 6.15
1 21.138 16.333 2.403
1 17.391 21.138 1.344
1 21.953 15.518 3.218
1 15.518 18.206 6.965
1 18.206 21.953 0.529
1 25.7 18.206 4.276
1 26.759 15.518 0.529
1 26.759 19.265 4.276
1 23.012 21.953 3.218
1 26.759 18.206 3.218
1 29.447 19.265 6.965
1 23.012 19.265 0.529
1 25.7 15.518 6.965
1 25.7 19.265 3.218
1 29.447 21.953 4.276
1 23.012 15.518 4.276
1 29.447 18.206 0.529
1 26.759 21.953 6.965
1 23.827 20.08 1.344
1 27.574 20.08 5.091
1 28.633 21.138 5.091
1 27.574 17.391 2.403
1 24.885 16.333 6.15
1 23.827 21.138 2.403
1 24.885 17.391 5.091
1 28.633 20.08 6.15
1 27.574 16.333 1.344
1 24.885 20.08 2.403
1 28.633 17.391 1.344
1 23.827 16.333 5.091
1 27.574 21.138 6.15
1 23.827 17.391 6.15
1 28.633 16.333 2.403
1 24.885 21.138 1.344
1 29.447 15.518 3.218
1 23.012 18.206 6.965
1 25.7 21.953 0.529
1 33.194 18.206 4.276
1 34.253 15.518 0.529
1 34.253 19.265 4.276
1 30.506 21.953 3.218
1 34.253 18.206 3.218
1 36.942 19.265 6.965
1 30.506 19.265 0.529
1 33.194 15.518 6.965
1 33.194 19.265 3.218
1 36.942 21.953 4.276
1 30.506 15.518 4.276
1 36.942 18.206 0.529
1 34.253 21.953 6.965
1 31.321 20.08 1.344
1 35.068 20.08 5.091
1 36.127 21.138 5.091
1 35.068 17.391 2.403
1 32.38 16.333 6.15
1 31.321 21.138 2.403
1 32.38 17.391 5.091
1 36.127 20.08 6.15
1 35.068 16.333 1.344
1 32.38 20.08 2.403
1 36.127 17.391 1.344
1 31.321 16.333 5.091
1 35.068 21.138 6.15
1 31.321 17.391 6.15
1 36.127 16.333 2.403
1 32.38 21.138 1.344
1 36.942 15.518 3.218
1 30.506 18.206 6.965
1 33.194 21.953 0.529
1 3.218 25.7 4.276
1 4.276 23.012 0.529
1 4.276 26.759 4.276
1 0.529 29.447 3.218
1 4.276 25.7 3.218
1 6.965 26.759 6.965
1 0.529 26.759 0.529
1 3.218 23.012 6.965
1 3.218 26.759 3.218
1 6.965 29.447 4.276
1 0.529 23.012 4.276
1 6.965 25.7 0.529
1 4.276 29.447 6.965
1 1.344 27.574 1.344
1 5.091 27.574 5.091
1 6.15 28.633 5.091
1 5.091 24.885 2.403
1 2.403 23.827 6.15
1 1.344 28.633 2.403
1 2.403 24.885 5.091
1 6.15 27.574 6.15
1 5.091 23.827 1.344
1 2.403 27.574 2.403
1 6.15 24.885 1.344
1 1.344 23.827 5.091
1 5.091 28.633 6.15
1 1.344 24.885 6.15
1 6.15 23.827 2.403
1 2.403 28.633 1.344
1 6.965 23.012 3.218
1 0.529 25.7 6.965
1 3.218 29.447 0.529
1 10.712 25.7 4.276
1 11.771 23.012 0.529
1 11.771 26.759 4.276
1 8.024 29.447 3.218
1 11.771 25.7 3.218
1 14.459 26.759 6.965
1 8.024 26.759 0.529
1 10.712 23.012 6.965
1 10.712 26.759 3.218
1 14.459 29.447 4.276
1 8.024 23.012 4.276
1 14.459 25.7 0.529
1 11.771 29.447 6.965
1 8.838 27.574 1.344
1 12.585 27.574 5.091
1 13.644 28.633 5.091
1 12.585 24.885 2.403
1 9.897 23.827 6.15
1 8.838 28.633 2.403
1 9.897 24.885 5.091
1 13.644 27.574 6.15
1 12.585 23.827 1.344
1 9.897 27.574 2.403
1 13.644 24.885 1.344
1 8.838 23.827 5.091
1 12.585 28.633 6.15
1 8.838 24.885 6.15
1 13.644 23.827 2.403
1 9.897 28.633 1.344
1 14.459 23.012 3.218
1 8.024 25.7 6.965
1 10.712 29.447 0.529
1 18.206 25.7 4.276
1 19.265 23.012 0.529
1 19.265 26.759 4.276
1 15.518 29.447 3.218
1 19.265 25.7 3.218
1 21.953 26.759 6.965
1 15.518 26.759 0.529
1 18.206 23.012 6.965
1 18.206 26.759 3.218
1 21.953 29.447 4.276
1 15.518 23.012 4.276
1 21.953 25.7 0.529
1 19.265 29.447 6.965
1 16.333 27.574 1.344
1 20.08 27.574 5.091
1 21.138 28.633 5.091
1 20.08 24.885 2.403
1 17.391 23.827 6.15
1 16.333 28.633 2.403
1 17.391 24.885 5.091
1 21.138 27.574 6.15
1 20.08 23.827 1.344
1 17.391 27.574 2.403
1 21.138 24.885 1.344
1 16.333 23.827 5.091
1 20.08 28.633 6.15
1 16.333 24.885 6.15
1 21.138 23.827 2.403
1 17.391 28.633 1.344
1 21.953 23.012 3.218
1 15.518 25.7 6.965
1 18.206 29.447 0.529
1 25.7 25.7 4.276
1 26.759 23.012 0.529
1 26.759 26.759 4.276
1 23.012 29.447 3.218
1 26.759 25.7 3.218
1 29.447 26.759 6.965
1 23.012 26.759 0.529
1 25.7 23.012 6.965
1 25.7 26.759 3.218
1 29.447 29.447 4.276
1 23.012 23.012 4.276
1 29.447 25.7 0.529
1 26.759 29.447 6.965
1 23.827 27.574 1.344
1 27.574 27.574 5.091
1 28.633 28.633 5.091
1 27.574 24.885 2.403
1 24.885 23.827 6.15
1 23.827 28.633 2.403
1 24.885 24.885 5.091
1 28.633 27.574 6.15
1 27.574 23.827 1.344
1 24.885 27.574 2.403
1 28.633 24.885 1.344
1 23.827 23.827 5.091
1 27.574 28.633 6.15
1 23.827 24.885 6.15
1 28.633 23.827 2.403
1 24.885 28.633 1.344
1 29.447 23.012 3.218
1 23.012 25.7 6.965
1 25.7 29.447 0.529
1 33.194 25.7 4.276
1 34.253 23.012 0.529
1 34.253 26.759 4.276
1 30.506 29.447 3.218
1 34.253 25.7 3.218
1 36.942 26.759 6.965
1 30.506 26.759 0.529
1 33.194 23.012 6.965
1 33.194 26.759 3.218
1 36.942 29.447 4.276
1 30.506 23.012 4.276
1 36.942 25.7 0.529
1 34.253 29.447 6.965
1 31.321 27.574 1.344
1 35.068 27.574 5.091
1 36.127 28.633 5.091
1 35.068 24.885 2.403
1 32.38 23.827 6.15
1 31.321 28.633 2.403
1 32.38 24.885 5.091
1 36.127 27.574 6.15
1 35.068 23.827 1.344
1 32.38 27.574 2.403
1 36.127 24.885 1.344
1 31.321 23.827 5.091
1 35.068 28.633 6.15
1 31.321 24.885 6.15
1 36.127 23.827 2.403
1 32.38 28.633 1.344
1 36.942 23.012 3.218
1 30.506 25.7 6.965
1 33.194 29.447 0.529
1 3.218 33.194 4.276
1 4.276 30.506 0.529
1 4.276 34.253 4.276
1 0.529 36.942 3.218
1 4.276 33.194 3.218
1 6.965 34.253 6.965
1 0.529 34.253 0.529
1 3.218 30.506 6.965
1 3.218 34.253 3.218
1 6.965 36.942 4.276
1 0.529 30.506 4.276
1 6.965 33.194 0.529
1 4.276 36.942 6.965
1 1.344 35.068 1.344
1 5.091 35.068 5.091
1 6.15 36.127 5.091
1 5.091 32.38 2.403
1 2.403 31.321 6.15
1 1.344 36.127 2.403
1 2.403 32.38 5.091
1 6.15 35.068 6.15
1 5.091 31.321 1.344
1 2.403 35.068 2.403
1 6.15 32.38 1.344
1 1.344 31.321 5.091
1 5.091 36.127 6.15
1 1.344 32.38 6.15
1 6.15 31.321 2.403
1 2.403 36.127 1.344
1 6.965 30.506 3.218
1 0.529 33.194 6.965
1 3.218 36.942 0.529
1 10.712 33.194 4.276
1 11.771 30.506 0.529
1 11.771 34.253 4.276
1 8.024 36.942 3.218
1 11.771 33.194 3.218
1 14.459 34.253 6.965
1 8.024 34.253 0.529
1 10.712 30.506 6.965
1 10.712 34.253 3.218
1 14.459 36.942 4.276
1 8.024 30.506 4.276
1 14.459 33.194 0.529
1 11.771 36.942 6.965
1 8.838 35.068 1.344
1 12.585 35.068 5.091
1 13.644 36.127 5.091
1 12.585 32.38 2.403
1 9.897 31.321 6.15
1 8.838 36.127 2.403
1 9.897 32.38 5.091
1 13.644 35.068 6.15
1 12.585 31.321 1.344
1 9.897 35.068 2.403
1 13.644 32.38 1.344
1 8.838 31.321 5.091
1 12.585 36.127 6.15
1 8.838 32.38 6.15
1 13.644 31.321 2.403
1 9.897 36.127 1.344
1 14.459 30.506 3.218
1 8.024 33.194 6.965
1 10.712 36.942 0.529
1 18.206 33.194 4.276
1 19.265 30.506 0.529
1 19.265 34.253 4.276
1 15.518 36.942 3.218
1 19.265 33.194 3.218
1 21.953 34.253 6.965
1 15.518 34.253 0.529
1 18.206 30.506 6.965
1 18.206 34.253 3.218
1 21.953 36.942 4.276
1 15.518 30.506 4.276
1 21.953 33.194 0.529
1 19.265 36.942 6.965
1 16.333 35.068 1.344
1 20.08 35.068 5.091
1 21.138 36.127 5.091
1 20.08 32.38 2.403
1 17.391 31.321 6.15
1 16.333 36.127 2.403
1 17.391 32.38 5.091
1 21.138 35.068 6.15
1 20.08 31.321 1.344
1 17.391 35.068 2.403
1 21.138 32.38 1.344
1 16.333 31.321 5.091
1 20.08 36.127 6.15
1 16.333 32.38 6.15
1 21.138 31.321 2.403
1 17.391 36.127 1.344
1 21.953 30.506 3.218
1 15.518 33.194 6.965
1 18.206 36.942 0.529
1 25.7 33.194 4.276
1 26.759 30.506 0.529
1 26.759 34.253 4.276
1 23.012 36.942 3.218
1 26.759 33.194 3.218
1 29.447 34.253 6.965
1 23.012 34.253 0.529
1 25.7 30.506 6.965
1 25.7 34.253 3.218
1 29.447 36.942 4.276
1 23.012 30.506 4.276
1 29.447 33.194 0.529
1 26.759 36.942 6.965
1 23.827 35.068 1.344
1 27.574 35.068 5.091
1 28.633 36.127 5.091
1 27.574 32.38 2.403
1 24.885 31.321 6.15
1 23.827 36.127 2.403
1 24.885 32.38 5.091
1 28.633 35.068 6.15
1 27.574 31.321 1.344
1 24.885 35.068 2.403
1 28.633 32.38 1.344
1 23.827 31.321 5.091
1 27.574 36.127 6.15
1 23.827 32.38 6.15
1 28.633 31.321 2.403
1 24.885 36.127 1.344
1 29.447 30.506 3.218
1 23.012 33.194 6.965
1 25.7 36.942 0.529
1 33.194 33.194 4.276
1 34.253 30.506 0.529
1 34.253 34.253 4.276
1 30.506 36.942 3.218
1 34.253 33.194 3.218
1 36.942 34.253 6.965
1 30.506 34.253 0.529
1 33.194 30.506 6.965
1 33.194 34.253 3.218
1 36.942 36.942 4.276
1 30.506 30.506 4.276
1 36.942 33.194 0.529
1 34.253 36.942 6.965
1 31.321 35.068 1.344
1 35.068 35.068 5.091
1 36.127 36.127 5.091
1 35.068 32.38 2.403
1 32.38 31.321 6.15
1 31.321 36.127 2.403
1 32.38 32.38 5.091
1 36.127 35.068 6.15
1 35.068 31.321 1.344
1 32.38 35.068 2.403
1 36.127 32.38 1.344
1 31.321 31.321 5.091
1 35.068 36.127 6.15
1 31.321 32.38 6.15
1 36.127 31.321 2.403
1 32.38 36.127 1.344
1 36.942 30.506 3.218
1 30.506 33.194 6.965
1 33.194 36.942 0.529
1 3.218 3.218 11.771
1 4.276 0.529 8.024
1 4.276 4.276 11.771
1 0.529 6.965 10.712
1 4.276 3.218 10.712
1 6.965 4.276 14.459
1 0.529 4.276 8.024
1 3.218 0.529 14.459
1 3.218 4.276 10.712
1 6.965 6.965 11.771
1 0.529 0.529 11.771
1 6.965 3.218 8.024
1 4.276 6.965 14.459
1 1.344 5.091 8.838
1 5.091 5.091 12.585
1 6.15 6.15 12.585
1 5.091 2.403 9.897
1 2.403 1.344 13.644
1 1.344 6.15 9.897
1 2.403 2.403 12.585
1 6.15 5.091 13.644
1 5.091 1.344 8.838
1 2.403 5.091 9.897
1 6.15 2.403 8.838
1 1.344 1.344 12.585
1 5.091 6.15 13.644
1 1.344 2.403 13.644
1 6.15 1.344 9.897
1 2.403 6.15 8.838
1 6.965 0.529 10.712
1 0.529 3.218 14.459
1 3.218 6.965 8.024
1 10.712 3.218 11.771
1 11.771 0.529 8.024
1 11.771 4.276 11.771
1 8.024 6.965 10.712
1 11.771 3.218 10.712
1 14.459 4.276 14.459
1 8.024 4.276 8.024
1 10.712 0.529 14.459
1 10.712 4.276 10.712
1 14.459 6.965 11.771
1 8.024 0.529 11.771
1 14.459 3.218 8.024
1 11.771 6.965 14.459
1 8.838 5.091 8.838
1 12.585 5.091 12.585
1 13.644 6.15 12.585
1 12.585 2.403 9.897
1 9.897 1.344 13.644
1 8.838 6.15 9.897
1 9.897 2.403 12.585
1 13.644 5.091 13.644
1 12.585 1.344 8.838
1 9.897 5.091 9.897
1 13.644 2.403 8.838
1 8.838 1.344 12.585
1 12.585 6.15 13.644
1 8.838 2.403 13.644
1 13.644 1.344 9.897
1 9.897 6.15 8.838
1 14.459 0.529 10.712
1 8.024 3.218 14.459
1 10.712 6.965 8.024
1 18.206 3.218 11.771
1 19.265 0.529 8.024
1 19.265 4.276 11.771
1 15.518 6.965 10.712
1 19.265 3.218 10.712
1 21.953 4.276 14.459
1 15.518 4.276 8.024
1 18.206 0.529 14.459
1 18.206 4.276 10.712
1 21.953 6.965 11.771
1 15.518 0.529 11.771
1 21.953 3.218 8.024
1 19.265 6.965 14.459
1 16.333 5.091 8.838
1 20.08 5.091 12.585
1 21.138 6.15 12.585
1 20.08 2.403 9.897
1 17.391 1.344 13.644
1 16.333 6.15 9.897
1 17.391 2.403 12.585
1 21.138 5.091 13.644
1 20.08 1.344 8.838
1 17.391 5.091 9.897
1 21.138 2.403 8.838
1 16.333 1.344 12.585
1 20.08 6.15 13.644
1 16.333 2.403 13.644
1 21.138 1.344 9.897
1 17.391 6.15 8.838
1 21.953 0.529 10.712
1 15.518 3.218 14.459
1 18.206 6.965 8.024
1 25.7 3.218 11.771
1 26.759 0.529 8.024
1 26.759 4.276 11.771
1 23.012 6.965 10.712
1 26.759 3.218 10.712
1 29.447 4.276 14.459
1 23.012 4.276 8.024
1 25.7 0.529 14.459
1 25.7 4.276 10.712
1 29.447 6.965 11.771
1 23.012 0.529 11.771
1 29.447 3.218 8.024
1 26.759 6.965 14.459
1 23.827 5.091 8.838
1 27.574 5.091 12.585
1 28.633 6.15 12.585
1 27.574 2.403 9.897
1 24.885 1.344 13.644
1 23.827 6.15 9.897
1 24.885 2.403 12.585
1 28.633 5.091 13.644
1 27.574 1.344 8.838
1 24.885 5.091 9.897
1 28.633 2.403 8.838
1 23.827 1.344 12.585
1 27.574 6.15 13.644
1 23.827 2.403 13.644
1 28.633 1.344 9.897
1 24.885 6.15 8.838
1 29.447 0.529 10.712
1 23.012 3.218 14.459
1 25.7 6.965 8.024
1 33.194 3.218 11.771
1 34.253 0.529 8.024
1 34.253 4.276 11.771
1 30.506 6.965 10.712
1 34.253 3.218 10.712
1 36.942 4.276 14.459
1 30.506 4.276 8.024
1 33.194 0.529 14.459
1 33.194 4.276 10.712
1 36.942 6.965 11.771
1 30.506 0.529 11.771
1 36.942 3.218 8.024
1 34.253 6.965 14.459
1 31.321 5.091 8.838
1 35.068 5.091 12.585
1 36.127 6.15 12.585
1 35.068 2.403 9.897
1 32.38 1.344 13.644
1 31.321 6.15 9.897
1 32.38 2.403 12.585
1 36.127 5.091 13.644
1 35.068 1.344 8.838
1 32.38 5.091 9.897
1 36.127 2.403 8.838
1 31.321 1.344 12.585
1 35.068 6.15 13.644
1 31.321 2.403 13.644
1 36.127 1.344 9.897
1 32.38 6.15 8.838
1 36.942 0.529 10.712
1 30.506 3.218 14.459
1 33.194 6.965 8.024
1 3.218 10.712 11.771
1 4.276 8.024 8.024
1 4.276 11.771 11.771
1 0.529 14.459 10.712
1 4.276 10.712 10.712
1 6.965 11.771 14.459
1 0.529 11.771 8.024
1 3.218 8.024 14.459
1 3.218 11.771 10.712
1 6.965 14.459 11.771
1 0.529 8.024 11.771
1 6.965 10.712 8.024
1 4.276 14.459 14.459
1 1.344 12.585 8.838
1 5.091 12.585 12.585
1 6.15 13.644 12.585
1 5.091 9.897 9.897
1 2.403 8.838 13.644
1 1.344 13.644 9.897
1 2.403 9.897 12.585
1 6.15 12.585 13.644
1 5.091 8.838 8.838
1 2.403 12.585 9.897
1 6.15 9.897 8.838
1 1.344 8.838 12.585
1 5.091 13.644 13.644
1 1.344 9.897 13.644
1 6.15 8.838 9.897
1 2.403 13.644 8.838
1 6.965 8.024 10.712
1 0.529 10.712 14.459
1 3.218 14.459 8.024
1 10.712 10.712 11.771
1 11.771 8.024 8.024
1 11.771 11.771 11.771
1 8.024 14.459 10.712
1 11.771 10.712 10.712
1 14.459 11.771 14.459
1 8.024 11.771 8.024
1 10.712 8.024 14.459
1 10.712 11.771 10.712
1 14.459 14.459 11.771
1 8.024 8.024 11.771
1 14.459 10.712 8.024
1 11.771 14.459 14.459
1 8.838 12.585 8.838
1 12.585 12.585 12.585
1 13.644 13.644 12.585
1 12.585 9.897 9.897
1 9.897 8.838 13.644
1 8.838 13.644 9.897
1 9.897 9.897 12.585
1 13.644 12.585 13.644
1 12.585 8.838 8.838
1 9.897 12.585 9.897
1 13.644 9.897 8.838
1 8.838 8.838 12.585
1 12.585 13.644 13.644
1 8.838 9.897 13.644
1 13.644 8.838 9.897
1 9.897 13.644 8.838
1 14.459 8.024 10.712
1 8.024 10.712 14.459
1 10.712 14.459 8.024
1 18.206 10.712 11.771
1 19.265 8.024 8.024
1 19.265 11.771 11.771
1 15.518 14.459 10.712
1 19.265 10.712 10.712
1 21.953 11.771 14.459
1 15.518 11.771 8.024
1 18.206 8.024 14.459
1 18.206 11.771 10.712
1 21.953 14.459 11.771
1 15.518 8.024 11.771
1 21.953 10.712 8.024
1 19.265 14.459 14.459
1 16.333 12.585 8.838
1 20.08 12.585 12.585
1 21.138 13.644 12.585
1 20.08 9.897 9.897
1 17.391 8.838 13.644
1 16.333 13.644 9.897
1 17.391 9.897 12.585
1 21.138 12.585 13.644
1 20.08 8.838 8.838
1 17.391 12.585 9.897
1 21.138 9.897 8.838
1 16.333 8.838 12.585
1 20.08 13.644 13.644
1 16.333 9.897 13.644
1 21.138 8.838 9.897
1 17.391 13.644 8.838
1 21.953 8.024 10.712
1 15.518 10.712 14.459
1 18.206 14.459 8.024
1 25.7 10.712 11.771
1 26.759 8.024 8.024
1 26.759 11.771 11.771
1 23.012 14.459 10.712
1 26.759 10.712 10.712
1 29.447 11.771 14.459
1 23.012 11.771 8.024
1 25.7 8.024 14.459
1 25.7 11.771 10.712
1 29.447 14.459 11.771
1 23.012 8.024 11.771
1 29.447 10.712 8.024
1 26.759 14.459 14.459
1 23.827 12.585 8.838
1 27.574 12.585 12.585
1 28.633 13.644 12.585
1 27.574 9.897 9.897
1 24.885 8.838 13.644
1 23.827 13.644 9.897
1 24.885 9.897 12.585
1 28.633 12.585 13.644
1 27.574 8.838 8.838
1 24.885 12.585 9.897
1 28.633 9.897 8.838
1 23.827 8.838 12.585
1 27.574 13.644 13.644
1 23.827 9.897 13.644
1 28.633 8.838 9.897
1 24.885 13.644 8.838
1 29.447 8.024 10.712
1 23.012 10.712 14.459
1 25.7 14.459 8.024
1 33.194 10.712 11.771
1 34.253 8.024 8.024
1 34.253 11.771 11.771
1 30.506 14.459 10.712
1 34.253 10.712 10.712
1 36.942 11.771 14.459
1 30.506 11.771 8.024
1 33.194 8.024 14.459
1 33.194 11.771 10.712
1 36.942 14.459 11.771
1 30.506 8.024 11.771
1 36.942 10.712 8.024
1 34.253 14.459 14.459
1 31.321 12.585 8.838
1 35.068 12.585 12.585
1 36.127 13.644 12.585
1 35.068 9.897 9.897
1 32.38 8.838 13.644
1 31.321 13.644 9.897
1 32.38 9.897 12.585
1 36.127 12.585 13.644
1 35.068 8.838 8.838
1 32.38 12.585 9.897
1 36.127 9.897 8.838
1 31.321 8.838 12.585
1 35.068 13.644 13.644
1 31.321 9.897 13.644
1 36.127 8.838 9.897
1 32.38 13.644 8.838
1 36.942 8.024 10.712
1 30.506 10.712 14.459
1 33.194 14.459 8.024
1 3.218 18.206 11.771
1 4.276 15.518 8.024
1 4.276 19.265 11.771
1 0.529 21.953 10.712
1 4.276 18.206 10.712
1 6.965 19.265 14.459
1 0.529 19.265 8.024
1 3.218 15.518 14.459
1 3.218 19.265 10.712
1 6.965 21.953 11.771
1 0.529 15.518 11.771
1 6.965 18.206 8.024
1 4.276 21.953 14.459
1 1.344 20.08 8.838
1 5.091 20.08 12.585
1 6.15 21.138 12.585
1 5.091 17.391 9.897
1 2.403 16.333 13.644
1 1.344 21.138 9.897
1 2.403 17.391 12.585
1 6.15 20.08 13.644
1 5.091 16.333 8.838
1 2.403 20.08 9.897
1 6.15 17.391 8.838
1 1.344 16.333 12.585
1 5.091 21.138 13.644
1 1.344 17.391 13.644
1 6.15 16.333 9.897
1 2.403 21.138 8.838
1 6.965 15.518 10.712
1 0.529 18.206 14.459
1 3.218 21.953 8.024
1 10.712 18.206 11.771
1 11.771 15.518 8.024
1 11.771 19.265 11.771
1 8.024 21.953 10.712
1 11.771 18.206 10.712
1 14.459 19.265 14.459
1 8.024 19.265 8.024
1 10.712 15.518 14.459
1 10.712 19.265 10.712
1 14.459 21.953 11.771
1 8.024 15.518 11.771
1 14.459 18.206 8.024
1 11.771 21.953 14.459
1 8.838 20.08 8.838
1 12.585 20.08 12.585
1 13.644 21.138 12.585
1 12.585 17.391 9.897
1 9.897 16.333 13.644
1 8.838 21.138 9.897
1 9.897 17.391 12.585
1 13.644 20.08 13.644
1 12.585 16.333 8.838
1 9.897 20.08 9.897
1 13.644 17.391 8.838
1 8.838 16.333 12.585
1 12.585 21.138 13.644
1 8.838 17.391 13.644
1 13.644 16.333 9.897
1 9.897 21.138 8.838
1 14.459 15.518 10.712
1 8.024 18.206 14.459
1 10.712 21.953 8.024
1 18.206 18.206 11.771
1 19.265 15.518 8.024
1 19.265 19.265 11.771
1 15.518 21.953 10.712
1 19.265 18.206 10.712
1 21.953 19.265 14.459
1 15.518 19.265 8.024
1 18.206 15.518 14.459
1 18.206 19.265 10.712
1 21.953 21.953 11.771
1 15.518 15.518 11.771
1 21.953 18.206 8.024
1 19.265 21.953 14.459
1 16.333 20.08 8.838
1 20.08 20.08 12.585
1 21.138 21.138 12.585
1 20.08 17.391 9.897
1 17.391 16.333 13.644
1 16.333 21.138 9.897
1 17.391 17.391 12.585
1 21.138 20.08 13.644
1 20.08 16.333 8.838
1 17.391 20.08 9.897
1 21.138 17.391 8.838
1 16.333 16.333 12.585
1 20.08 21.138 13.644
1 16.333 17.391 13.644
1 21.138 16.333 9.897
1 17.391 21.138 8.838
1 21.953 15.518 10.712
1 15.518 18.206 14.459
1 18.206 21.953 8.024
1 25.7 18.206 11.771
1 26.759 15.518 8.024
1 26.759 19.265 11.771
1 23.012 21.953 10.712
1 26.759 18.206 10.712
1 29.447 19.265 14.459
1 23.012 19.265 8.024
1 25.7 15.518 14.459
1 25.7 19.265 10.712
1 29.447 21.953 11.771
1 23.012 15.518 11.771
1 29.447 18.206 8.024
1 26.759 21.953 14.459
1 23.827 20.08 8.838
1 27.574 20.08 12.585
1 28.633 21.138 12.585
1 27.574 17.391 9.897
1 24.885 16.333 13.644
1 23.827 21.138 9.897
1 24.885 17.391 12.585
1 28.633 20.08 13.644
1 27.574 16.333 8.838
1 24.885 20.08 9.897
1 28.633 17.391 8.838
1 23.827 16.333 12.585
1 27.574 21.138 13.644
1 23.827 17.391 13.644
1 28.633 16.333 9.897
1 24.885 21.138 8.838
1 29.447 15.518 10.712
1 23.012 18.206 14.459
1 25.7 21.953 8.024
1 33.194 18.206 11.771
1 34.253 15.518 8.024
1 34.253 19.265 11.771
1 30.506 21.953 10.712
1 34.253 18.206 10.712
1 36.942 19.265 14.459
1 30.506 19.265 8.024
1 33.194 15.518 14.459
1 33.194 19.265 10.712
1 36.942 21.953 11.771
1 30.506 15.518 11.771
1 36.942 18.206 8.024
1 34.253 21.953 14.459
1 31.321 20.08 8.838
1 35.068 20.08 12.585
1 36.127 21.138 12.585
1 35.068 17.391 9.897
1 32.38 16.333 13.644
1 31.321 21.138 9.897
1 32.38 17.391 12.585
1 36.127 20.08 13.644
1 35.068 16.333 8.838
1 32.38 20.08 9.897
1 36.127 17.391 8.838
1 31.321 16.333 12.585
1 35.068 21.138 13.644
1 31.321 17.391 13.644
1 36.127 16.333 9.897
1 32.38 21.138 8.838
1 36.942 15.518 10.712
1 30.506 18.206 14.459
1 33.194 21.953 8.024
1 3.218 25.7 11.771
1 4.276 23.012 8.024
1 4.276 26.759 11.771
1 0.529 29.447 10.712
1 4.276 25.7 10.712
1 6.965 26.759 14.459
1 0.529 26.759 8.024
1 3.218 23.012 14.459
1 3.218 26.759 10.712
1 6.965 29.447 11.771
1 0.529 23.012 11.771
1 6.965 25.7 8.024
1 4.276 29.447 14.459
1 1.344 27.574 8.838
1 5.091 27.574 12.585
1 6.15 28.633 12.585
1 5.091 24.885 9.897
1 2.403 23.827 13.644
1 1.344 28.633 9.897
1 2.403 24.885 12.585
1 6.15 27.574 13.644
1 5.091 23.827 8.838
1 2.403 27.574 9.897
1 6.15 24.885 8.838
1 1.344 23.827 12.585
1 5.091 28.633 13.644
1 1.344 24.885 13.644
1 6.15 23.827 9.897
1 2.403 28.633 8.838
1 6.965 23.012 10.712
1 0.529 25.7 14.459
1 3.218 29.447 8.024
1 10.712 25.7 11.771
1 11.771 23.012 8.024
1 11.771 26.759 11.771
1 8.024 29.447 10.712
1 11.771 25.7 10.712
1 14.459 26.759 14.459
1 8.024 26.759 8.024
1 10.712 23.012 14.459
1 10.712 26.759 10.712
1 14.459 29.447 11.771
1 8.024 23.012 11.771
1 14.459 25.7 8.024
1 11.771 29.447 14.459
1 8.838 27.574 8.838
1 12.585 27.574 12.585
1 13.644 28.633 12.585
1 12.585 24.885 9.897
1 9.897 23.827 13.644
1 8.838 28.633 9.897
1 9.897 24.885 12.585
1 13.644 27.574 13.644
1 12.585 23.827 8.838
1 9.897 27.574 9.897
1 13.644 24.885 8.838
1 8.838 23.827 12.585
1 12.585 28.633 13.644
1 8.838 24.885 13.644
1 13.644 23.827 9.897
1 9.897 28.633 8.838
1 14.459 23.012 10.712
1 8.024 25.7 14.459
1 10.712 29.447 8.024
1 18.206 25.7 11.771
1 19.265 23.012 8.024
1 19.265 26.759 11.771
1 15.518 29.447 10.712
1 19.265 25.7 10.712
1 21.953 26.759 14.459
1 15.518 26.759 8.024
1 18.206 23.012 14.459
1 18.206 26.759 10.712
1 21.953 29.447 11.771
1 15.518 23.012 11.771
1 21.953 25.7 8.024
1 19.265 29.447 14.459
1 16.333 27.574 8.838
1 20.08 27.574 12.585
1 21.138 28.633 12.585
1 20.08 24.885 9.897
1 17.391 23.827 13.644
1 16.333 28.633 9.897
1 17.391 24.885 12.585
1 21.138 27.574 13.644
1 20.08 23.827 8.838
1 17.391 27.574 9.897
1 21.138 24.885 8.838
1 16.333 23.827 12.585
1 20.08 28.633 13.644
1 16.333 24.885 13.644
1 21.138 23.827 9.897
1 17.391 28.633 8.838
1 21.953 23.012 10.712
1 15.518 25.7 14.459
1 18.206 29.447 8.024
1 25.7 25.7 11.771
1 26.759 23.012 8.024
1 26.759 26.759 11.771
1 23.012 29.447 10.712
1 26.759 25.7 10.712
1 29.447 26.759 14.459
1 23.012 26.759 8.024
1 25.7 23.012 14.459
1 25.7 26.759 10.712
1 29.447 29.447 11.771
1 23.012 23.012 11.771
1 29.447 25.7 8.024
1 26.759 29.447 14.459
1 23.827 27.574 8.838
1 27.574 27.574 12.585
1 28.633 28.633 12.585
1 27.574 24.885 9.897
1 24.885 23.827 13.644
1 23.827 28.633 9.897
1 24.885 24.885 12.585
1 28.633 27.574 13.644
1 27.574 23.827 8.838
1 24.885 27.574 9.897
1 28.633 24.885 8.838
1 23.827 23.827 12.585
1 27.574 28.633 13.644
1 23.827 24.885 13.644